# vtk DataFile Version 3.0
vtk output
ASCII
DATASET UNSTRUCTURED_GRID
POINTS     2328 float
0.10000E+01  -.00000E+00  0.00000E+00
0.98457E+00  -.17502E+00  0.00000E+00
0.97979E+00  -.75512E-01  -.18523E+00
0.99626E+00  -.86446E-01  0.00000E+00
0.98786E+00  -.12500E+00  -.92274E-01
0.99506E+00  -.37503E-01  -.91967E-01
0.98418E+00  0.17717E+00  0.00000E+00
0.10000E+01  -.00000E+00  0.00000E+00
0.97979E+00  -.75512E-01  -.18523E+00
0.99616E+00  0.87502E-01  0.00000E+00
0.99506E+00  -.37503E-01  -.91967E-01
0.99406E+00  0.49354E-01  -.97015E-01
0.98457E+00  -.17502E+00  0.00000E+00
0.92968E+00  -.36837E+00  0.00000E+00
0.97979E+00  -.75512E-01  -.18523E+00
0.96235E+00  -.27181E+00  0.00000E+00
0.97023E+00  -.22129E+00  -.98433E-01
0.98786E+00  -.12500E+00  -.92274E-01
0.92840E+00  0.37157E+00  0.00000E+00
0.98418E+00  0.17717E+00  0.00000E+00
0.94246E+00  0.27491E+00  -.19027E+00
0.96159E+00  0.27451E+00  0.00000E+00
0.96951E+00  0.22598E+00  -.94821E-01
0.94154E+00  0.32338E+00  -.94499E-01
0.92968E+00  -.36837E+00  0.00000E+00
0.82247E+00  -.56881E+00  0.00000E+00
0.88436E+00  -.40296E+00  -.23565E+00
0.88224E+00  -.47080E+00  0.00000E+00
0.86510E+00  -.48756E+00  -.11785E+00
0.91525E+00  -.38570E+00  -.11645E+00
0.82039E+00  0.57181E+00  0.00000E+00
0.92840E+00  0.37157E+00  0.00000E+00
0.94246E+00  0.27491E+00  -.19027E+00
0.88056E+00  0.47393E+00  0.00000E+00
0.94154E+00  0.32338E+00  -.94499E-01
0.89859E+00  0.42706E+00  -.10079E+00
0.94246E+00  0.27491E+00  -.19027E+00
0.98418E+00  0.17717E+00  0.00000E+00
0.97979E+00  -.75512E-01  -.18523E+00
0.96951E+00  0.22598E+00  -.94821E-01
0.99406E+00  0.49354E-01  -.97015E-01
0.97525E+00  0.96923E-01  -.19872E+00
0.82247E+00  -.56881E+00  0.00000E+00
0.65276E+00  -.75756E+00  0.00000E+00
0.88436E+00  -.40296E+00  -.23565E+00
0.74377E+00  -.66844E+00  0.00000E+00
0.79482E+00  -.59343E+00  -.12692E+00
0.86510E+00  -.48756E+00  -.11785E+00
0.65074E+00  0.75930E+00  0.00000E+00
0.82039E+00  0.57181E+00  0.00000E+00
0.75988E+00  0.55817E+00  -.33320E+00
0.74165E+00  0.67079E+00  0.00000E+00
0.80844E+00  0.56501E+00  -.16488E+00
0.72836E+00  0.66459E+00  -.16676E+00
0.92968E+00  -.36837E+00  0.00000E+00
0.88436E+00  -.40296E+00  -.23565E+00
0.97979E+00  -.75512E-01  -.18523E+00
0.91525E+00  -.38570E+00  -.11645E+00
0.94576E+00  -.23884E+00  -.22021E+00
0.97023E+00  -.22129E+00  -.98433E-01
0.94246E+00  0.27491E+00  -.19027E+00
0.97979E+00  -.75512E-01  -.18523E+00
0.86708E+00  0.42851E-01  -.49633E+00
0.97525E+00  0.96923E-01  -.19872E+00
0.93886E+00  -.16033E-01  -.34391E+00
0.92347E+00  0.15777E+00  -.34973E+00
0.75988E+00  0.55817E+00  -.33320E+00
0.82039E+00  0.57181E+00  0.00000E+00
0.94246E+00  0.27491E+00  -.19027E+00
0.80844E+00  0.56501E+00  -.16488E+00
0.89859E+00  0.42706E+00  -.10079E+00
0.86626E+00  0.41974E+00  -.27094E+00
0.65074E+00  0.75930E+00  0.00000E+00
0.75988E+00  0.55817E+00  -.33320E+00
0.39520E+00  0.91859E+00  0.00000E+00
0.72836E+00  0.66459E+00  -.16676E+00
0.61144E+00  0.77091E+00  -.17842E+00
0.52789E+00  0.84932E+00  0.00000E+00
0.65276E+00  -.75756E+00  0.00000E+00
0.39448E+00  -.91891E+00  0.00000E+00
0.52898E+00  -.69557E+00  -.48617E+00
0.52866E+00  -.84883E+00  0.00000E+00
0.50823E+00  -.82435E+00  -.24930E+00
0.63943E+00  -.72732E+00  -.24927E+00
0.86708E+00  0.42851E-01  -.49633E+00
0.97979E+00  -.75512E-01  -.18523E+00
0.88436E+00  -.40296E+00  -.23565E+00
0.93886E+00  -.16033E-01  -.34391E+00
0.94576E+00  -.23884E+00  -.22021E+00
0.90560E+00  -.17725E+00  -.38533E+00
0.94246E+00  0.27491E+00  -.19027E+00
0.86708E+00  0.42851E-01  -.49633E+00
0.75988E+00  0.55817E+00  -.33320E+00
0.92347E+00  0.15777E+00  -.34973E+00
0.84492E+00  0.30356E+00  -.44041E+00
0.86626E+00  0.41974E+00  -.27094E+00
0.88436E+00  -.40296E+00  -.23565E+00
0.65276E+00  -.75756E+00  0.00000E+00
0.52898E+00  -.69557E+00  -.48617E+00
0.79482E+00  -.59343E+00  -.12692E+00
0.63943E+00  -.72732E+00  -.24927E+00
0.73756E+00  -.55673E+00  -.38218E+00
0.52898E+00  -.69557E+00  -.48617E+00
0.39448E+00  -.91891E+00  0.00000E+00
0.00000E+00  -.91502E+00  -.40340E+00
0.50823E+00  -.82435E+00  -.24930E+00
0.27988E+00  -.91697E+00  -.28430E+00
0.27431E+00  -.82151E+00  -.49988E+00
0.00000E+00  -.65080E+00  -.75925E+00
0.00000E+00  -.22938E+00  -.97334E+00
0.49994E+00  -.31044E+00  -.80851E+00
0.00000E+00  -.44884E+00  -.89361E+00
0.25155E+00  -.26992E+00  -.92944E+00
0.25829E+00  -.48772E+00  -.83392E+00
0.00000E+00  0.26110E+00  -.96531E+00
0.00000E+00  0.66675E+00  -.74528E+00
0.46451E+00  0.26323E+00  -.84554E+00
0.00000E+00  0.47330E+00  -.88090E+00
0.24381E+00  0.47431E+00  -.84592E+00
0.23162E+00  0.26217E+00  -.93681E+00
0.00000E+00  0.66675E+00  -.74528E+00
0.41617E+00  0.78095E+00  -.46574E+00
0.46451E+00  0.26323E+00  -.84554E+00
0.21982E+00  0.72639E+00  -.65118E+00
0.47596E+00  0.54477E+00  -.69042E+00
0.24381E+00  0.47431E+00  -.84592E+00
0.00000E+00  -.91502E+00  -.40340E+00
0.00000E+00  -.65080E+00  -.75925E+00
0.52898E+00  -.69557E+00  -.48617E+00
0.00000E+00  -.80398E+00  -.59466E+00
0.27972E+00  -.67348E+00  -.68424E+00
0.27431E+00  -.82151E+00  -.49988E+00
0.88436E+00  -.40296E+00  -.23565E+00
0.52898E+00  -.69557E+00  -.48617E+00
0.49994E+00  -.31044E+00  -.80851E+00
0.73756E+00  -.55673E+00  -.38218E+00
0.53758E+00  -.51350E+00  -.66882E+00
0.74947E+00  -.35689E+00  -.55760E+00
0.00000E+00  -.22938E+00  -.97334E+00
0.46451E+00  0.26323E+00  -.84554E+00
0.49994E+00  -.31044E+00  -.80851E+00
0.25337E+00  0.16085E-01  -.96724E+00
0.51199E+00  -.22476E-01  -.85870E+00
0.25155E+00  -.26992E+00  -.92944E+00
0.39520E+00  0.91859E+00  0.00000E+00
0.75988E+00  0.55817E+00  -.33320E+00
0.41617E+00  0.78095E+00  -.46574E+00
0.61144E+00  0.77091E+00  -.17842E+00
0.60600E+00  0.67720E+00  -.41733E+00
0.45368E+00  0.85805E+00  -.24068E+00
0.41617E+00  0.78095E+00  -.46574E+00
0.75988E+00  0.55817E+00  -.33320E+00
0.46451E+00  0.26323E+00  -.84554E+00
0.60600E+00  0.67720E+00  -.41733E+00
0.65936E+00  0.41403E+00  -.62756E+00
0.47596E+00  0.54477E+00  -.69042E+00
0.39520E+00  0.91859E+00  0.00000E+00
0.41617E+00  0.78095E+00  -.46574E+00
0.00000E+00  0.10000E+01  0.00000E+00
0.45368E+00  0.85805E+00  -.24068E+00
0.21380E+00  0.94794E+00  -.23601E+00
0.19565E+00  0.98067E+00  0.00000E+00
0.86708E+00  0.42851E-01  -.49633E+00
0.88436E+00  -.40296E+00  -.23565E+00
0.49994E+00  -.31044E+00  -.80851E+00
0.90560E+00  -.17725E+00  -.38533E+00
0.74947E+00  -.35689E+00  -.55760E+00
0.71654E+00  -.13098E+00  -.68513E+00
0.00000E+00  0.26110E+00  -.96531E+00
0.46451E+00  0.26323E+00  -.84554E+00
0.00000E+00  -.22938E+00  -.97334E+00
0.23162E+00  0.26217E+00  -.93681E+00
0.25337E+00  0.16085E-01  -.96724E+00
0.00000E+00  0.15074E-01  -.99989E+00
0.39448E+00  -.91891E+00  0.00000E+00
0.00000E+00  -.10000E+01  0.00000E+00
0.00000E+00  -.91502E+00  -.40340E+00
0.19528E+00  -.98075E+00  0.00000E+00
0.00000E+00  -.97984E+00  -.19981E+00
0.27988E+00  -.91697E+00  -.28430E+00
0.00000E+00  0.91828E+00  -.39593E+00
0.00000E+00  0.10000E+01  0.00000E+00
0.41617E+00  0.78095E+00  -.46574E+00
0.00000E+00  0.98060E+00  -.19602E+00
0.21380E+00  0.94794E+00  -.23601E+00
0.21112E+00  0.85784E+00  -.46855E+00
0.00000E+00  0.91828E+00  -.39593E+00
0.41617E+00  0.78095E+00  -.46574E+00
0.00000E+00  0.66675E+00  -.74528E+00
0.21112E+00  0.85784E+00  -.46855E+00
0.21982E+00  0.72639E+00  -.65118E+00
0.00000E+00  0.81266E+00  -.58274E+00
0.00000E+00  -.65080E+00  -.75925E+00
0.49994E+00  -.31044E+00  -.80851E+00
0.52898E+00  -.69557E+00  -.48617E+00
0.25829E+00  -.48772E+00  -.83392E+00
0.53758E+00  -.51350E+00  -.66882E+00
0.27972E+00  -.67348E+00  -.68424E+00
0.75988E+00  0.55817E+00  -.33320E+00
0.86708E+00  0.42851E-01  -.49633E+00
0.46451E+00  0.26323E+00  -.84554E+00
0.84492E+00  0.30356E+00  -.44041E+00
0.69585E+00  0.15198E+00  -.70192E+00
0.65936E+00  0.41403E+00  -.62756E+00
0.46451E+00  0.26323E+00  -.84554E+00
0.86708E+00  0.42851E-01  -.49633E+00
0.49994E+00  -.31044E+00  -.80851E+00
0.69585E+00  0.15198E+00  -.70192E+00
0.71654E+00  -.13098E+00  -.68513E+00
0.51199E+00  -.22476E-01  -.85870E+00
0.00000E+00  0.91828E+00  -.39593E+00
0.00000E+00  0.66675E+00  -.74528E+00
-.50068E+00  0.60829E+00  -.61587E+00
0.00000E+00  0.81266E+00  -.58274E+00
-.25457E+00  0.63795E+00  -.72678E+00
-.25955E+00  0.79002E+00  -.55543E+00
0.00000E+00  0.66675E+00  -.74528E+00
0.00000E+00  0.26110E+00  -.96531E+00
-.50068E+00  0.60829E+00  -.61587E+00
0.00000E+00  0.47330E+00  -.88090E+00
-.27188E+00  0.44026E+00  -.85572E+00
-.25457E+00  0.63795E+00  -.72678E+00
0.00000E+00  -.22938E+00  -.97334E+00
0.00000E+00  -.65080E+00  -.75925E+00
-.49994E+00  -.31044E+00  -.80851E+00
0.00000E+00  -.44884E+00  -.89361E+00
-.25829E+00  -.48772E+00  -.83392E+00
-.25155E+00  -.26992E+00  -.92944E+00
0.00000E+00  0.26110E+00  -.96531E+00
0.00000E+00  -.22938E+00  -.97334E+00
-.49994E+00  -.31044E+00  -.80851E+00
0.00000E+00  0.15074E-01  -.99989E+00
-.25155E+00  -.26992E+00  -.92944E+00
-.28009E+00  -.23490E-01  -.95969E+00
0.00000E+00  -.65080E+00  -.75925E+00
0.00000E+00  -.91502E+00  -.40340E+00
-.49994E+00  -.31044E+00  -.80851E+00
0.00000E+00  -.80398E+00  -.59466E+00
-.28723E+00  -.66936E+00  -.68517E+00
-.25829E+00  -.48772E+00  -.83392E+00
-.47917E+00  -.87772E+00  0.00000E+00
-.85053E+00  -.52593E+00  0.00000E+00
-.49994E+00  -.31044E+00  -.80851E+00
-.68739E+00  -.72629E+00  0.00000E+00
-.78962E+00  -.42002E+00  -.44731E+00
-.61745E+00  -.63654E+00  -.46213E+00
-.85030E+00  0.52629E+00  0.00000E+00
-.47725E+00  0.87877E+00  0.00000E+00
-.50068E+00  0.60829E+00  -.61587E+00
-.68642E+00  0.72720E+00  0.00000E+00
-.56158E+00  0.76074E+00  -.32543E+00
-.75345E+00  0.56791E+00  -.33137E+00
0.00000E+00  0.10000E+01  0.00000E+00
0.00000E+00  0.91828E+00  -.39593E+00
-.47725E+00  0.87877E+00  0.00000E+00
0.00000E+00  0.98060E+00  -.19602E+00
-.32823E+00  0.89952E+00  -.28833E+00
-.23786E+00  0.97130E+00  0.00000E+00
0.00000E+00  0.91828E+00  -.39593E+00
-.50068E+00  0.60829E+00  -.61587E+00
[...]
POINT_DATA     2328
SCALARS scalars float 1
LOOKUP_TABLE default
0.00000E+00
0.00000E+00
-.18523E+00
0.00000E+00
-.92274E-01
-.91967E-01
0.00000E+00
0.00000E+00
-.18523E+00
0.00000E+00
-.91967E-01
-.97015E-01
0.00000E+00
0.00000E+00
-.18523E+00
0.00000E+00
-.98433E-01
-.92274E-01
0.00000E+00
0.00000E+00
-.19027E+00
0.00000E+00
-.94821E-01
-.94499E-01
0.00000E+00
0.00000E+00
-.23565E+00
0.00000E+00
-.11785E+00
-.11645E+00
0.00000E+00
0.00000E+00
-.19027E+00
0.00000E+00
-.94499E-01
-.10079E+00
-.19027E+00
0.00000E+00
-.18523E+00
-.94821E-01
-.97015E-01
-.19872E+00
0.00000E+00
0.00000E+00
-.23565E+00
0.00000E+00
-.12692E+00
-.11785E+00
0.00000E+00
0.00000E+00
-.33320E+00
0.00000E+00
-.16488E+00
-.16676E+00
0.00000E+00
-.23565E+00
-.18523E+00
-.11645E+00
-.22021E+00
-.98433E-01
-.19027E+00
-.18523E+00
-.49633E+00
-.19872E+00
-.34391E+00
-.34973E+00
-.33320E+00
0.00000E+00
-.19027E+00
-.16488E+00
-.10079E+00
-.27094E+00
0.00000E+00
-.33320E+00
0.00000E+00
-.16676E+00
-.17842E+00
0.00000E+00
0.00000E+00
0.00000E+00
-.48617E+00
0.00000E+00
-.24930E+00
-.24927E+00
-.49633E+00
-.18523E+00
-.23565E+00
-.34391E+00
-.22021E+00
-.38533E+00
-.19027E+00
-.49633E+00
-.33320E+00
-.34973E+00
-.44041E+00
-.27094E+00
-.23565E+00
0.00000E+00
-.48617E+00
-.12692E+00
-.24927E+00
-.38218E+00
-.48617E+00
0.00000E+00
-.40340E+00
-.24930E+00
-.28430E+00
-.49988E+00
-.75925E+00
-.97334E+00
-.80851E+00
-.89361E+00
-.92944E+00
-.83392E+00
-.96531E+00
-.74528E+00
-.84554E+00
-.88090E+00
-.84592E+00
-.93681E+00
-.74528E+00
-.46574E+00
-.84554E+00
-.65118E+00
-.69042E+00
-.84592E+00
-.40340E+00
-.75925E+00
-.48617E+00
-.59466E+00
-.68424E+00
-.49988E+00
-.23565E+00
-.48617E+00
-.80851E+00
-.38218E+00
-.66882E+00
-.55760E+00
-.97334E+00
-.84554E+00
-.80851E+00
-.96724E+00
-.85870E+00
-.92944E+00
0.00000E+00
-.33320E+00
-.46574E+00
-.17842E+00
-.41733E+00
-.24068E+00
-.46574E+00
-.33320E+00
-.84554E+00
-.41733E+00
-.62756E+00
-.69042E+00
0.00000E+00
-.46574E+00
0.00000E+00
-.24068E+00
-.23601E+00
0.00000E+00
-.49633E+00
-.23565E+00
-.80851E+00
-.38533E+00
-.55760E+00
-.68513E+00
-.96531E+00
-.84554E+00
-.97334E+00
-.93681E+00
-.96724E+00
-.99989E+00
0.00000E+00
0.00000E+00
-.40340E+00
0.00000E+00
-.19981E+00
-.28430E+00
-.39593E+00
0.00000E+00
-.46574E+00
-.19602E+00
-.23601E+00
-.46855E+00
-.39593E+00
-.46574E+00
-.74528E+00
-.46855E+00
-.65118E+00
-.58274E+00
-.75925E+00
-.80851E+00
-.48617E+00
-.83392E+00
-.66882E+00
-.68424E+00
-.33320E+00
-.49633E+00
-.84554E+00
-.44041E+00
-.70192E+00
-.62756E+00
-.84554E+00
-.49633E+00
-.80851E+00
-.70192E+00
-.68513E+00
-.85870E+00
-.39593E+00
-.74528E+00
-.61587E+00
-.58274E+00
-.72678E+00
-.55543E+00
-.74528E+00
-.96531E+00
-.61587E+00
-.88090E+00
-.85572E+00
-.72678E+00
-.97334E+00
-.75925E+00
-.80851E+00
-.89361E+00
-.83392E+00
-.92944E+00
-.96531E+00
-.97334E+00
-.80851E+00
-.99989E+00
-.92944E+00
-.95969E+00
-.75925E+00
-.40340E+00
-.80851E+00
-.59466E+00
-.68517E+00
-.83392E+00
0.00000E+00
0.00000E+00
-.80851E+00
0.00000E+00
-.44731E+00
-.46213E+00
0.00000E+00
0.00000E+00
-.61587E+00
0.00000E+00
-.32543E+00
-.33137E+00
0.00000E+00
-.39593E+00
0.00000E+00
-.19602E+00
-.28833E+00
0.00000E+00
-.39593E+00
-.61587E+00
0.00000E+00
-.55543E+00
-.32543E+00
-.28833E+00
-.40340E+00
0.00000E+00
0.00000E+00
-.19981E+00
0.00000E+00
-.29310E+00
0.00000E+00
-.55525E+00
-.80851E+00
-.31275E+00
-.71315E+00
-.44731E+00
0.00000E+00
0.00000E+00
-.55525E+00
0.00000E+00
-.29461E+00
-.28045E+00
0.00000E+00
-.61587E+00
-.55525E+00
-.33137E+00
-.62119E+00
-.29461E+00
-.55525E+00
-.61587E+00
-.96531E+00
-.62119E+00
-.85572E+00
-.87351E+00
0.00000E+00
-.55525E+00
0.00000E+00
-.28045E+00
-.31275E+00
0.00000E+00
-.80851E+00
-.55525E+00
-.96531E+00
-.71315E+00
-.87351E+00
-.95969E+00
-.80851E+00
-.40340E+00
0.00000E+00
-.68517E+00
-.29310E+00
-.46213E+00
0.15000E+01
0.15000E+01
0.17500E+01
0.15000E+01
0.16816E+01
0.16768E+01
0.16740E+01
0.17500E+01
0.15000E+01
0.17320E+01
0.16816E+01
0.16234E+01
0.17500E+01
0.16734E+01
0.15000E+01
0.17313E+01
0.16437E+01
0.16768E+01
0.15000E+01
0.15000E+01
0.16734E+01
0.15000E+01
0.16437E+01
0.16230E+01
0.15000E+01
0.15000E+01
0.16740E+01
0.15000E+01
0.15903E+01
0.16234E+01
0.16734E+01
0.15000E+01
0.15000E+01
0.15899E+01
0.15000E+01
0.16230E+01
0.16734E+01
0.17500E+01
0.15000E+01
0.17313E+01
0.16768E+01
0.16437E+01
0.17500E+01
0.16740E+01
0.15000E+01
0.17320E+01
0.16440E+01
0.16768E+01
0.15000E+01
0.15000E+01
0.16740E+01
0.15000E+01
0.16440E+01
0.16234E+01
0.15000E+01
0.15000E+01
0.16734E+01
0.15000E+01
0.16230E+01
0.16437E+01
0.15000E+01
0.16734E+01
0.15000E+01
0.15899E+01
0.16230E+01
0.15000E+01
0.16740E+01
0.15000E+01
0.15000E+01
0.15903E+01
0.15000E+01
0.16234E+01
0.15000E+01
0.13265E+01
0.15000E+01
0.14132E+01
0.14214E+01
0.15000E+01
0.15000E+01
0.15000E+01
0.12891E+01
0.15000E+01
0.14027E+01
0.13945E+01
0.13265E+01
0.11237E+01
0.12344E+01
0.12251E+01
0.11916E+01
0.12915E+01
0.11237E+01
0.89084E+00
0.93952E+00
0.10073E+01
0.93105E+00
0.10457E+01
0.12344E+01
0.11237E+01
0.93952E+00
0.11916E+01
0.10457E+01
0.10870E+01
0.13265E+01
0.12344E+01
0.15000E+01
0.12915E+01
0.13672E+01
0.14214E+01
0.12344E+01
0.93952E+00
0.10427E+01
0.10870E+01
0.10050E+01
0.11496E+01
0.10427E+01
0.12891E+01
0.12344E+01
0.11659E+01
0.12714E+01
0.11496E+01
0.89084E+00
0.62670E+00
0.70669E+00
0.75877E+00
0.67344E+00
0.80482E+00
0.93952E+00
0.89084E+00
0.70669E+00
0.93105E+00
0.80482E+00
0.82598E+00
0.93952E+00
0.57186E+00
0.75969E+00
0.75693E+00
0.67544E+00
0.86527E+00
0.75969E+00
0.10427E+01
0.93952E+00
0.90119E+00
0.10050E+01
0.86527E+00
0.15000E+01
0.12344E+01
0.12891E+01
0.13672E+01
0.12714E+01
0.14027E+01
0.62670E+00
0.32662E+00
0.40485E+00
0.47666E+00
0.37578E+00
0.52487E+00
0.70669E+00
0.62670E+00
0.40485E+00
0.67344E+00
0.52487E+00
0.55584E+00
0.70669E+00
0.40485E+00
0.57186E+00
0.55584E+00
0.49669E+00
0.64830E+00
0.32662E+00
0.00000E+00
0.00000E+00
0.16331E+00
0.00000E+00
0.17429E+00
0.42966E+00
0.75969E+00
0.57186E+00
0.59467E+00
0.67544E+00
0.51161E+00
0.40485E+00
0.32662E+00
0.00000E+00
0.37578E+00
0.17429E+00
0.20242E+00
0.57186E+00
0.93952E+00
0.70669E+00
0.75693E+00
0.82598E+00
0.64830E+00
0.57186E+00
0.40485E+00
0.00000E+00
0.49669E+00
0.21234E+00
0.28593E+00
0.42966E+00
0.57186E+00
0.00000E+00
0.51161E+00
0.28593E+00
0.22752E+00
0.00000E+00
0.00000E+00
0.40485E+00
0.00000E+00
0.21234E+00
0.20242E+00
0.00000E+00
0.42966E+00
0.00000E+00
0.21483E+00
0.22752E+00
0.00000E+00
0.13269E+01
0.15000E+01
0.15000E+01
0.14134E+01
0.15000E+01
0.14217E+01
0.15000E+01
0.15000E+01
0.12891E+01
0.15000E+01
0.13945E+01
0.14027E+01
0.89238E+00
0.11247E+01
0.94066E+00
0.10085E+01
0.10467E+01
0.93239E+00
0.11247E+01
0.13269E+01
0.12348E+01
0.12258E+01
0.12919E+01
0.11923E+01
0.12348E+01
0.13269E+01
0.15000E+01
0.12919E+01
0.14217E+01
0.13674E+01
0.11247E+01
0.12348E+01
0.94066E+00
0.11923E+01
0.10877E+01
0.10467E+01
0.94066E+00
0.12348E+01
0.10427E+01
0.10877E+01
0.11498E+01
0.10055E+01
0.12891E+01
0.10427E+01
0.12348E+01
0.11659E+01
0.11498E+01
0.12716E+01
0.62865E+00
0.89238E+00
0.70793E+00
0.76051E+00
0.80622E+00
0.67504E+00
0.89238E+00
0.94066E+00
0.70793E+00
0.93239E+00
0.82717E+00
0.80622E+00
0.70793E+00
0.94066E+00
0.57247E+00
0.82717E+00
0.75780E+00
0.64921E+00
0.10427E+01
0.75969E+00
0.94066E+00
0.90119E+00
0.86582E+00
0.10055E+01
0.12348E+01
0.15000E+01
0.12891E+01
0.13674E+01
0.14027E+01
0.12716E+01
0.32792E+00
0.62865E+00
0.40581E+00
0.47829E+00
0.52634E+00
0.37693E+00
0.62865E+00
0.70793E+00
0.40581E+00
0.67504E+00
0.55694E+00
0.52634E+00
0.40581E+00
0.70793E+00
0.57247E+00
0.55694E+00
0.64921E+00
0.49746E+00
0.00000E+00
0.32792E+00
0.00000E+00
0.16396E+00
0.17503E+00
0.00000E+00
0.75969E+00
0.42966E+00
0.57247E+00
0.59467E+00
0.51189E+00
0.67573E+00
0.32792E+00
0.40581E+00
0.00000E+00
0.37693E+00
0.20291E+00
0.17503E+00
0.75969E+00
0.57247E+00
0.94066E+00
0.67573E+00
0.75780E+00
0.86582E+00
0.40581E+00
0.57247E+00
0.00000E+00
0.49746E+00
0.28624E+00
0.21280E+00
0.57247E+00
0.42966E+00
0.00000E+00
0.51189E+00
0.22750E+00
0.28624E+00
0.42966E+00
0.00000E+00
0.00000E+00
0.21483E+00
0.00000E+00
0.22750E+00
0.00000E+00
0.00000E+00
0.40581E+00
0.00000E+00
0.20291E+00
0.21280E+00
0.83205E+00
0.81541E+00
0.83205E+00
0.82373E+00
0.82373E+00
0.83205E+00
0.83205E+00
0.84869E+00
0.83205E+00
0.84037E+00
0.84037E+00
0.83205E+00
0.81541E+00
0.83205E+00
0.80613E+00
0.82373E+00
0.81909E+00
0.81077E+00
0.49987E+00
0.48197E+00
0.50819E+00
0.49092E+00
0.49508E+00
0.50403E+00
0.52603E+00
0.49987E+00
0.50819E+00
0.51295E+00
0.50403E+00
0.51711E+00
0.52603E+00
0.50819E+00
0.54003E+00
0.51711E+00
0.52411E+00
0.53303E+00
0.78934E+00
0.81541E+00
0.80613E+00
0.80238E+00
0.81077E+00
0.79774E+00
0.78934E+00
0.80613E+00
0.77478E+00
0.79774E+00
0.79046E+00
0.78207E+00
0.55782E+00
0.52603E+00
0.54003E+00
0.54192E+00
0.53303E+00
0.54892E+00
0.55782E+00
0.54003E+00
0.57819E+00
0.54892E+00
0.55911E+00
0.56800E+00
0.75776E+00
0.78934E+00
0.77478E+00
0.77355E+00
0.78207E+00
0.76627E+00
0.75776E+00
0.77478E+00
0.73713E+00
0.76627E+00
0.75596E+00
0.74745E+00
0.59595E+00
0.55782E+00
0.57819E+00
0.57689E+00
0.56800E+00
0.58707E+00
0.59595E+00
0.57819E+00
0.62321E+00
0.58707E+00
0.60070E+00
0.60958E+00
0.71986E+00
0.75776E+00
0.73713E+00
0.73881E+00
0.74745E+00
0.72850E+00
0.71986E+00
0.73713E+00
0.69261E+00
0.72850E+00
0.71487E+00
0.70623E+00
0.64095E+00
0.59595E+00
0.62321E+00
0.61845E+00
0.60958E+00
0.63208E+00
0.64095E+00
0.62321E+00
0.67510E+00
0.63208E+00
0.64915E+00
0.65802E+00
0.67510E+00
0.71986E+00
0.69261E+00
0.69748E+00
0.70623E+00
0.68385E+00
0.67510E+00
0.69261E+00
0.64095E+00
0.68385E+00
0.66678E+00
0.65802E+00
0.83205E+00
0.81541E+00
0.80613E+00
0.82373E+00
0.81077E+00
0.81909E+00
0.48197E+00
0.49987E+00
0.50819E+00
0.49092E+00
0.50403E+00
0.49508E+00
0.81541E+00
0.78934E+00
0.80613E+00
0.80238E+00
0.79774E+00
0.81077E+00
0.80613E+00
0.78934E+00
0.77478E+00
0.79774E+00
0.78207E+00
0.79046E+00
0.49987E+00
0.52603E+00
0.50819E+00
0.51295E+00
0.51711E+00
0.50403E+00
0.50819E+00
0.52603E+00
0.54003E+00
0.51711E+00
0.53303E+00
0.52411E+00
0.78934E+00
0.75776E+00
0.77478E+00
0.77355E+00
0.76627E+00
0.78207E+00
0.77478E+00
0.75776E+00
0.73713E+00
0.76627E+00
0.74745E+00
0.75596E+00
0.52603E+00
0.55782E+00
0.54003E+00
0.54192E+00
0.54892E+00
0.53303E+00
0.54003E+00
0.55782E+00
0.57819E+00
0.54892E+00
0.56800E+00
0.55911E+00
0.75776E+00
0.71986E+00
0.73713E+00
0.73881E+00
0.72850E+00
0.74745E+00
0.73713E+00
0.71986E+00
0.69261E+00
0.72850E+00
0.70623E+00
0.71487E+00
0.55782E+00
0.59595E+00
0.57819E+00
0.57689E+00
0.58707E+00
0.56800E+00
0.57819E+00
0.59595E+00
0.62321E+00
0.58707E+00
0.60958E+00
0.60070E+00
0.71986E+00
0.67510E+00
0.69261E+00
0.69748E+00
0.68385E+00
0.70623E+00
0.69261E+00
0.67510E+00
0.64095E+00
0.68385E+00
0.65802E+00
0.66678E+00
0.59595E+00
0.64095E+00
0.62321E+00
0.61845E+00
0.63208E+00
0.60958E+00
0.62321E+00
0.64095E+00
0.67510E+00
0.63208E+00
0.65802E+00
0.64915E+00
0.83205E+00
0.84869E+00
0.82295E+00
0.84037E+00
0.83582E+00
0.82750E+00
0.51803E+00
0.49987E+00
0.52603E+00
0.50895E+00
0.51295E+00
0.52203E+00
0.54412E+00
0.51803E+00
0.52603E+00
0.53107E+00
0.52203E+00
0.53507E+00
0.54412E+00
0.52603E+00
0.55782E+00
0.53507E+00
0.54192E+00
0.55097E+00
0.80613E+00
0.83205E+00
0.82295E+00
0.81909E+00
0.82750E+00
0.81454E+00
0.80613E+00
0.82295E+00
0.79189E+00
0.81454E+00
0.80742E+00
0.79901E+00
0.77478E+00
0.80613E+00
0.79189E+00
0.79046E+00
0.79901E+00
0.78334E+00
0.77478E+00
0.79189E+00
0.75453E+00
0.78334E+00
0.77321E+00
0.76466E+00
0.57586E+00
0.54412E+00
0.55782E+00
0.55999E+00
0.55097E+00
0.56684E+00
0.57586E+00
0.55782E+00
0.59595E+00
0.56684E+00
0.57689E+00
0.58591E+00
0.61396E+00
0.57586E+00
0.59595E+00
0.59491E+00
0.58591E+00
0.60495E+00
0.61396E+00
0.59595E+00
0.64095E+00
0.60495E+00
0.61845E+00
0.62745E+00
0.73713E+00
0.77478E+00
0.75453E+00
0.75596E+00
0.76466E+00
0.74583E+00
0.73713E+00
0.75453E+00
0.71030E+00
0.74583E+00
0.73242E+00
0.72372E+00
0.65894E+00
0.61396E+00
0.64095E+00
0.63645E+00
0.62745E+00
0.64994E+00
0.65894E+00
0.64095E+00
0.69261E+00
0.64994E+00
0.66678E+00
0.67577E+00
0.69261E+00
0.73713E+00
0.71030E+00
0.71487E+00
0.72372E+00
0.70146E+00
0.69261E+00
0.71030E+00
0.65894E+00
0.70146E+00
0.68462E+00
0.67577E+00
0.48197E+00
0.49987E+00
0.46129E+00
0.49092E+00
0.48059E+00
0.47170E+00
0.49987E+00
0.51803E+00
0.52767E+00
0.50895E+00
0.52293E+00
0.51378E+00
0.46129E+00
0.49987E+00
0.49187E+00
0.48059E+00
0.49597E+00
0.47663E+00
0.48197E+00
0.46129E+00
0.43423E+00
0.47170E+00
0.44784E+00
0.45810E+00
0.52767E+00
0.51803E+00
0.56297E+00
0.52293E+00
0.54050E+00
0.54539E+00
0.49987E+00
0.52767E+00
0.49187E+00
0.51378E+00
0.50981E+00
0.49597E+00
0.46129E+00
0.49187E+00
0.44659E+00
0.47663E+00
0.46924E+00
0.45405E+00
0.52767E+00
0.56297E+00
0.56667E+00
0.54539E+00
0.56496E+00
0.54717E+00
0.56667E+00
0.56297E+00
0.61977E+00
0.56496E+00
0.59137E+00
0.59336E+00
0.52767E+00
0.56667E+00
0.52510E+00
0.54717E+00
0.54597E+00
0.52653E+00
0.43423E+00
0.46129E+00
0.41182E+00
0.44784E+00
0.43656E+00
0.42318E+00
0.49187E+00
0.52767E+00
0.52510E+00
0.50981E+00
0.52653E+00
0.50852E+00
0.49187E+00
0.52510E+00
0.47778E+00
0.50852E+00
0.50149E+00
0.48499E+00
0.44659E+00
0.49187E+00
0.47778E+00
0.46924E+00
0.48499E+00
0.46227E+00
0.46129E+00
0.44659E+00
0.41182E+00
0.45405E+00
0.42926E+00
0.43656E+00
0.41182E+00
0.44659E+00
0.40583E+00
0.42926E+00
0.42629E+00
0.40909E+00
0.43423E+00
0.41182E+00
0.37656E+00
0.42318E+00
0.39435E+00
0.40540E+00
0.47778E+00
0.52510E+00
0.52952E+00
0.50149E+00
0.52759E+00
0.50374E+00
0.52510E+00
0.56667E+00
0.58507E+00
0.54597E+00
0.57614E+00
0.55514E+00
0.44659E+00
0.47778E+00
0.40583E+00
0.46227E+00
0.44180E+00
0.42629E+00
0.52952E+00
0.52510E+00
0.58507E+00
0.52759E+00
0.55514E+00
0.55737E+00
0.52952E+00
0.58507E+00
0.59472E+00
0.55737E+00
0.59022E+00
0.56221E+00
0.47778E+00
0.52952E+00
0.46397E+00
0.50374E+00
0.49685E+00
0.47129E+00
0.58507E+00
0.56667E+00
0.63781E+00
0.57614E+00
0.60225E+00
0.61162E+00
0.56667E+00
0.61977E+00
0.63781E+00
0.59336E+00
0.62901E+00
0.60225E+00
0.63781E+00
0.61977E+00
0.69093E+00
0.62901E+00
0.65535E+00
0.66458E+00
0.41182E+00
0.33453E+00
0.37656E+00
0.37320E+00
0.35587E+00
0.39435E+00
0.30788E+00
0.37656E+00
0.33453E+00
0.34222E+00
0.35587E+00
0.32154E+00
0.63781E+00
0.69093E+00
0.71577E+00
0.66458E+00
0.70390E+00
0.67688E+00
0.46397E+00
0.52952E+00
0.53156E+00
0.49685E+00
0.53114E+00
0.49797E+00
0.47778E+00
0.46397E+00
0.40583E+00
0.47129E+00
0.43534E+00
0.44180E+00
0.58507E+00
0.63781E+00
0.65241E+00
0.61162E+00
0.64571E+00
0.61887E+00
0.22749E+00
0.30788E+00
0.25849E+00
0.26769E+00
0.28362E+00
0.24343E+00
0.33453E+00
0.41182E+00
0.40583E+00
0.37320E+00
0.40909E+00
0.37030E+00
0.33453E+00
0.40583E+00
0.29566E+00
0.37030E+00
0.35099E+00
0.31582E+00
0.30788E+00
0.33453E+00
0.25849E+00
0.32154E+00
0.29651E+00
0.28362E+00
0.25849E+00
0.33453E+00
0.29566E+00
0.29651E+00
0.31582E+00
0.27770E+00
0.59472E+00
0.58507E+00
0.65241E+00
0.59022E+00
0.61887E+00
0.62361E+00
0.59472E+00
0.65241E+00
0.67785E+00
0.62361E+00
0.66587E+00
0.63672E+00
0.52952E+00
0.59472E+00
0.53156E+00
0.56221E+00
0.56336E+00
0.53114E+00
0.53156E+00
0.59472E+00
0.67785E+00
0.56336E+00
0.63672E+00
0.60474E+00
0.71577E+00
0.69093E+00
0.77905E+00
0.70390E+00
0.73499E+00
0.74794E+00
0.63781E+00
0.71577E+00
0.65241E+00
0.67688E+00
0.68431E+00
0.64571E+00
0.65241E+00
0.71577E+00
0.67785E+00
0.68431E+00
0.69852E+00
0.66587E+00
0.46397E+00
0.53156E+00
0.41119E+00
0.49797E+00
0.47153E+00
0.43832E+00
0.13087E+00
0.22749E+00
0.17771E+00
0.17918E+00
0.20340E+00
0.15511E+00
0.22749E+00
0.25849E+00
0.17771E+00
0.24343E+00
0.21815E+00
0.20340E+00
0.71577E+00
0.77905E+00
0.86365E+00
0.74794E+00
0.82250E+00
0.78984E+00
0.17771E+00
0.25849E+00
0.29566E+00
0.21815E+00
0.27770E+00
0.23702E+00
0.41119E+00
0.53156E+00
0.52576E+00
0.47153E+00
0.52997E+00
0.46907E+00
0.46397E+00
0.41119E+00
0.29566E+00
0.43832E+00
0.35459E+00
0.37985E+00
0.77905E+00
0.88664E+00
0.86365E+00
0.83285E+00
0.87625E+00
0.82250E+00
0.29566E+00
0.40583E+00
0.46397E+00
0.35099E+00
0.43534E+00
0.37985E+00
0.13087E+00
0.17771E+00
0.00000E+00
0.15511E+00
0.88946E-01
0.66954E-01
0.86365E+00
0.88664E+00
0.10158E+01
0.87625E+00
0.95121E+00
0.94075E+00
0.71577E+00
0.86365E+00
0.67785E+00
0.78984E+00
0.77155E+00
0.69852E+00
0.52576E+00
0.53156E+00
0.67785E+00
0.52997E+00
0.60474E+00
0.60263E+00
0.41119E+00
0.52576E+00
0.38022E+00
0.46907E+00
0.45326E+00
0.39744E+00
0.00000E+00
0.13087E+00
0.00000E+00
0.65436E-01
0.66954E-01
0.00000E+00
0.10158E+01
0.11635E+01
0.10454E+01
0.10896E+01
0.11074E+01
0.10338E+01
0.38022E+00
0.52576E+00
0.49878E+00
0.45326E+00
0.51508E+00
0.44092E+00
0.41119E+00
0.38022E+00
0.23761E+00
0.39744E+00
0.30964E+00
0.32465E+00
0.15000E+01
0.13269E+01
0.15000E+01
0.14134E+01
0.14217E+01
0.15000E+01
0.11635E+01
0.13246E+01
0.12572E+01
0.12441E+01
0.12963E+01
0.12164E+01
0.17771E+00
0.29566E+00
0.13980E+00
0.23702E+00
0.21806E+00
0.16013E+00
0.52576E+00
0.67785E+00
0.65869E+00
0.60263E+00
0.67228E+00
0.59356E+00
0.13980E+00
0.29566E+00
0.23761E+00
0.21806E+00
0.26926E+00
0.18987E+00
0.17771E+00
0.13980E+00
0.00000E+00
0.16013E+00
0.70707E-01
0.88946E-01
0.13980E+00
0.23761E+00
0.00000E+00
0.18987E+00
0.11943E+00
0.73567E-01
0.15000E+01
0.15000E+01
0.13246E+01
0.15000E+01
0.14203E+01
0.14123E+01
0.10454E+01
0.11635E+01
0.12572E+01
0.11074E+01
0.12164E+01
0.11520E+01
0.10454E+01
0.12572E+01
0.10377E+01
0.11520E+01
0.11500E+01
0.10487E+01
0.10158E+01
0.10454E+01
0.86365E+00
0.10338E+01
0.95523E+00
0.94075E+00
0.23761E+00
0.29566E+00
0.41119E+00
0.26926E+00
0.35459E+00
0.32465E+00
0.00000E+00
0.00000E+00
0.13980E+00
0.00000E+00
0.70707E-01
0.70095E-01
0.00000E+00
0.13980E+00
0.00000E+00
0.70095E-01
0.73567E-01
0.00000E+00
0.13246E+01
0.15000E+01
0.12572E+01
0.14203E+01
0.13792E+01
0.12963E+01
0.49878E+00
0.52576E+00
0.65869E+00
0.51508E+00
0.59356E+00
0.57896E+00
0.49878E+00
0.65869E+00
0.62108E+00
0.57896E+00
0.64568E+00
0.56398E+00
0.38022E+00
0.49878E+00
0.28087E+00
0.44092E+00
0.39017E+00
0.33359E+00
0.23761E+00
0.38022E+00
0.16782E+00
0.30964E+00
0.27437E+00
0.20500E+00
0.65869E+00
0.67785E+00
0.87142E+00
0.67228E+00
0.77593E+00
0.76563E+00
0.67785E+00
0.86365E+00
0.87142E+00
0.77155E+00
0.87138E+00
0.77593E+00
0.13269E+01
0.10377E+01
0.12572E+01
0.11892E+01
0.11500E+01
0.13081E+01
0.00000E+00
0.00000E+00
0.16782E+00
0.00000E+00
0.84462E-01
0.84557E-01
0.16782E+00
0.00000E+00
0.23761E+00
0.84462E-01
0.11943E+00
0.20500E+00
0.00000E+00
0.16782E+00
0.28087E+00
0.84557E-01
0.22564E+00
0.14056E+00
0.28087E+00
0.16782E+00
0.38022E+00
0.22564E+00
0.27437E+00
0.33359E+00
0.87142E+00
0.86365E+00
0.10454E+01
0.87138E+00
0.95523E+00
0.95946E+00
0.87142E+00
0.10454E+01
0.10377E+01
0.95946E+00
0.10487E+01
0.95752E+00
0.28087E+00
0.49878E+00
0.62108E+00
0.39017E+00
0.56398E+00
0.45336E+00
0.65869E+00
0.87142E+00
0.62108E+00
0.76563E+00
0.75565E+00
0.64568E+00
0.11247E+01
0.89238E+00
0.10377E+01
0.10085E+01
0.97406E+00
0.10892E+01
0.10377E+01
0.13269E+01
0.11247E+01
0.11892E+01
0.12258E+01
0.10892E+01
0.87142E+00
0.10377E+01
0.62108E+00
0.95752E+00
0.83059E+00
0.75565E+00
0.15000E+01
0.13269E+01
0.12572E+01
0.14217E+01
0.13081E+01
0.13792E+01
0.89238E+00
0.62865E+00
0.62108E+00
0.76051E+00
0.62999E+00
0.76132E+00
0.62108E+00
0.62865E+00
0.32792E+00
0.62999E+00
0.47829E+00
0.48013E+00
0.00000E+00
0.00000E+00
0.28087E+00
0.00000E+00
0.14056E+00
0.14293E+00
0.32792E+00
0.00000E+00
0.00000E+00
0.16396E+00
0.00000E+00
0.17139E+00
0.10377E+01
0.89238E+00
0.62108E+00
0.97406E+00
0.76132E+00
0.83059E+00
0.00000E+00
0.28087E+00
0.32792E+00
0.14293E+00
0.32159E+00
0.17139E+00
0.28087E+00
0.62108E+00
0.32792E+00
0.45336E+00
0.48013E+00
0.32159E+00
0.84869E+00
0.83205E+00
0.82295E+00
0.84037E+00
0.82750E+00
0.83582E+00
0.49987E+00
0.51803E+00
0.52603E+00
0.50895E+00
0.52203E+00
0.51295E+00
0.83205E+00
0.80613E+00
0.82295E+00
0.81909E+00
0.81454E+00
0.82750E+00
0.82295E+00
0.80613E+00
0.79189E+00
0.81454E+00
0.79901E+00
0.80742E+00
0.51803E+00
0.54412E+00
0.52603E+00
0.53107E+00
0.53507E+00
0.52203E+00
0.52603E+00
0.54412E+00
0.55782E+00
0.53507E+00
0.55097E+00