# vtk DataFile Version 3.0
vtk output
ASCII
DATASET UNSTRUCTURED_GRID
POINTS     1944 float
0.00000E+00  0.10000E+01  0.80000E+01
-.39552E+00  0.91846E+00  0.80000E+01
-.14363E+00  0.65639E+00  0.80000E+01
-.19581E+00  0.98064E+00  0.80000E+01
-.26958E+00  0.78743E+00  0.80000E+01
-.71816E-01  0.82820E+00  0.80000E+01
0.38122E+00  0.92448E+00  0.80000E+01
0.00000E+00  0.10000E+01  0.80000E+01
-.14363E+00  0.65639E+00  0.80000E+01
0.18858E+00  0.98206E+00  0.80000E+01
-.71816E-01  0.82820E+00  0.80000E+01
0.11879E+00  0.79044E+00  0.80000E+01
-.39552E+00  0.91846E+00  0.80000E+01
-.75986E+00  0.65009E+00  0.80000E+01
-.14363E+00  0.65639E+00  0.80000E+01
-.59147E+00  0.80632E+00  0.80000E+01
-.45175E+00  0.65324E+00  0.80000E+01
-.26958E+00  0.78743E+00  0.80000E+01
0.74819E+00  0.66348E+00  0.80000E+01
0.38122E+00  0.92448E+00  0.80000E+01
0.31120E+00  0.38667E+00  0.80000E+01
0.57781E+00  0.81617E+00  0.80000E+01
0.34621E+00  0.65558E+00  0.80000E+01
0.52969E+00  0.52508E+00  0.80000E+01
-.75986E+00  0.65009E+00  0.80000E+01
-.97985E+00  0.19971E+00  0.80000E+01
-.39884E+00  0.58651E-01  0.80000E+01
-.90090E+00  0.43403E+00  0.80000E+01
-.68934E+00  0.12918E+00  0.80000E+01
-.57935E+00  0.35437E+00  0.80000E+01
0.97883E+00  0.20467E+00  0.80000E+01
0.74819E+00  0.66348E+00  0.80000E+01
0.31120E+00  0.38667E+00  0.80000E+01
0.89592E+00  0.44422E+00  0.80000E+01
0.52969E+00  0.52508E+00  0.80000E+01
0.64502E+00  0.29567E+00  0.80000E+01
-.97985E+00  0.19971E+00  0.80000E+01
-.93788E+00  -.34695E+00  0.80000E+01
-.39884E+00  0.58651E-01  0.80000E+01
-.99749E+00  -.70785E-01  0.80000E+01
-.66836E+00  -.14415E+00  0.80000E+01
-.68934E+00  0.12918E+00  0.80000E+01
0.31120E+00  0.38667E+00  0.80000E+01
0.38122E+00  0.92448E+00  0.80000E+01
-.14363E+00  0.65639E+00  0.80000E+01
0.34621E+00  0.65558E+00  0.80000E+01
0.11879E+00  0.79044E+00  0.80000E+01
0.83783E-01  0.52153E+00  0.80000E+01
0.31120E+00  0.38667E+00  0.80000E+01
-.14363E+00  0.65639E+00  0.80000E+01
-.39884E+00  0.58651E-01  0.80000E+01
0.83783E-01  0.52153E+00  0.80000E+01
-.27123E+00  0.35752E+00  0.80000E+01
-.43819E-01  0.22266E+00  0.80000E+01
-.39884E+00  0.58651E-01  0.80000E+01
-.14363E+00  0.65639E+00  0.80000E+01
-.75986E+00  0.65009E+00  0.80000E+01
-.27123E+00  0.35752E+00  0.80000E+01
-.45175E+00  0.65324E+00  0.80000E+01
-.57935E+00  0.35437E+00  0.80000E+01
0.93073E+00  -.36570E+00  0.80000E+01
0.97883E+00  0.20467E+00  0.80000E+01
0.25760E+00  -.33555E+00  0.80000E+01
0.99699E+00  -.77566E-01  0.80000E+01
0.61821E+00  -.65440E-01  0.80000E+01
0.59416E+00  -.35063E+00  0.80000E+01
-.93788E+00  -.34695E+00  0.80000E+01
-.58652E+00  -.80993E+00  0.80000E+01
-.39884E+00  0.58651E-01  0.80000E+01
-.79840E+00  -.60213E+00  0.80000E+01
-.49268E+00  -.37564E+00  0.80000E+01
-.66836E+00  -.14415E+00  0.80000E+01
0.56778E+00  -.82318E+00  0.80000E+01
0.93073E+00  -.36570E+00  0.80000E+01
0.25760E+00  -.33555E+00  0.80000E+01
0.78498E+00  -.61952E+00  0.80000E+01
0.59416E+00  -.35063E+00  0.80000E+01
0.41269E+00  -.57937E+00  0.80000E+01
-.58652E+00  -.80993E+00  0.80000E+01
-.00000E+00  -.10000E+01  0.80000E+01
0.25760E+00  -.33555E+00  0.80000E+01
-.29683E+00  -.95493E+00  0.80000E+01
0.12880E+00  -.66777E+00  0.80000E+01
-.16446E+00  -.57274E+00  0.80000E+01
-.00000E+00  -.10000E+01  0.80000E+01
0.56778E+00  -.82318E+00  0.80000E+01
0.25760E+00  -.33555E+00  0.80000E+01
0.28642E+00  -.95810E+00  0.80000E+01
0.41269E+00  -.57937E+00  0.80000E+01
0.12880E+00  -.66777E+00  0.80000E+01
0.25760E+00  -.33555E+00  0.80000E+01
0.97883E+00  0.20467E+00  0.80000E+01
0.31120E+00  0.38667E+00  0.80000E+01
0.61821E+00  -.65440E-01  0.80000E+01
0.64502E+00  0.29567E+00  0.80000E+01
0.28440E+00  0.25562E-01  0.80000E+01
0.25760E+00  -.33555E+00  0.80000E+01
0.31120E+00  0.38667E+00  0.80000E+01
-.39884E+00  0.58651E-01  0.80000E+01
0.28440E+00  0.25562E-01  0.80000E+01
-.43819E-01  0.22266E+00  0.80000E+01
-.70619E-01  -.13845E+00  0.80000E+01
0.25760E+00  -.33555E+00  0.80000E+01
-.39884E+00  0.58651E-01  0.80000E+01
-.58652E+00  -.80993E+00  0.80000E+01
-.70619E-01  -.13845E+00  0.80000E+01
-.49268E+00  -.37564E+00  0.80000E+01
-.16446E+00  -.57274E+00  0.80000E+01
-.21025E+00  -.53219E+00  0.66609E+01
-.21025E+00  -.53219E+00  0.70000E+01
0.12332E+00  -.57891E+00  0.70000E+01
-.21025E+00  -.53219E+00  0.68304E+01
-.43463E-01  -.55555E+00  0.70000E+01
-.43463E-01  -.55555E+00  0.68304E+01
-.21025E+00  -.53219E+00  0.62572E+01
-.21025E+00  -.53219E+00  0.66609E+01
0.47765E+00  -.62854E+00  0.66281E+01
-.21025E+00  -.53219E+00  0.64591E+01
0.13370E+00  -.58037E+00  0.66445E+01
0.13370E+00  -.58037E+00  0.64427E+01
0.12332E+00  -.57891E+00  0.70000E+01
0.47765E+00  -.62854E+00  0.70000E+01
0.47765E+00  -.62854E+00  0.66281E+01
0.30049E+00  -.60373E+00  0.70000E+01
0.47765E+00  -.62854E+00  0.68141E+01
0.30049E+00  -.60373E+00  0.68141E+01
-.21025E+00  -.53219E+00  0.57800E+01
-.21025E+00  -.53219E+00  0.62572E+01
0.47765E+00  -.62854E+00  0.61919E+01
-.21025E+00  -.53219E+00  0.60186E+01
0.13370E+00  -.58037E+00  0.62246E+01
0.13370E+00  -.58037E+00  0.59860E+01
0.47765E+00  -.62854E+00  0.66281E+01
0.47765E+00  -.62854E+00  0.61919E+01
-.21025E+00  -.53219E+00  0.62572E+01
0.47765E+00  -.62854E+00  0.64100E+01
0.13370E+00  -.58037E+00  0.62246E+01
0.13370E+00  -.58037E+00  0.64427E+01
0.47765E+00  -.62854E+00  0.61919E+01
0.47765E+00  -.62854E+00  0.56839E+01
-.21025E+00  -.53219E+00  0.57800E+01
0.47765E+00  -.62854E+00  0.59379E+01
0.13370E+00  -.58037E+00  0.57320E+01
0.13370E+00  -.58037E+00  0.59860E+01
-.21025E+00  -.53219E+00  0.66609E+01
0.12332E+00  -.57891E+00  0.70000E+01
0.47765E+00  -.62854E+00  0.66281E+01
-.43463E-01  -.55555E+00  0.68304E+01
0.30049E+00  -.60373E+00  0.68141E+01
0.13370E+00  -.58037E+00  0.66445E+01
-.21025E+00  -.53219E+00  0.52205E+01
-.21025E+00  -.53219E+00  0.57800E+01
0.47765E+00  -.62854E+00  0.56839E+01
-.21025E+00  -.53219E+00  0.55003E+01
0.13370E+00  -.58037E+00  0.57320E+01
0.13370E+00  -.58037E+00  0.54522E+01
0.47765E+00  -.62854E+00  0.56839E+01
0.47765E+00  -.62854E+00  0.50970E+01
-.21025E+00  -.53219E+00  0.52205E+01
0.47765E+00  -.62854E+00  0.53904E+01
0.13370E+00  -.58037E+00  0.51587E+01
0.13370E+00  -.58037E+00  0.54522E+01
-.21025E+00  -.53219E+00  0.45707E+01
-.21025E+00  -.53219E+00  0.52205E+01
0.47765E+00  -.62854E+00  0.50970E+01
-.21025E+00  -.53219E+00  0.48956E+01
0.13370E+00  -.58037E+00  0.51587E+01
0.13370E+00  -.58037E+00  0.48338E+01
0.47765E+00  -.62854E+00  0.00000E+00
-.21025E+00  -.53219E+00  0.00000E+00
-.21025E+00  -.53219E+00  0.68609E+00
0.13370E+00  -.58037E+00  0.00000E+00
-.21025E+00  -.53219E+00  0.34304E+00
0.13370E+00  -.58037E+00  0.34304E+00
0.47765E+00  -.62854E+00  0.50970E+01
0.47765E+00  -.62854E+00  0.44253E+01
-.21025E+00  -.53219E+00  0.45707E+01
0.47765E+00  -.62854E+00  0.47612E+01
0.13370E+00  -.58037E+00  0.44980E+01
0.13370E+00  -.58037E+00  0.48338E+01
0.47765E+00  -.62854E+00  0.66040E+00
0.47765E+00  -.62854E+00  0.00000E+00
-.21025E+00  -.53219E+00  0.68609E+00
0.47765E+00  -.62854E+00  0.33020E+00
0.13370E+00  -.58037E+00  0.34304E+00
0.13370E+00  -.58037E+00  0.67324E+00
0.47765E+00  -.62854E+00  0.13563E+01
0.47765E+00  -.62854E+00  0.66040E+00
-.21025E+00  -.53219E+00  0.68609E+00
0.47765E+00  -.62854E+00  0.10083E+01
0.13370E+00  -.58037E+00  0.67324E+00
0.13370E+00  -.58037E+00  0.10212E+01
-.21025E+00  -.53219E+00  0.45707E+01
0.47765E+00  -.62854E+00  0.44253E+01
-.21025E+00  -.53219E+00  0.38242E+01
0.13370E+00  -.58037E+00  0.44980E+01
0.13370E+00  -.58037E+00  0.41248E+01
-.21025E+00  -.53219E+00  0.41974E+01
-.21025E+00  -.53219E+00  0.68609E+00
-.21025E+00  -.53219E+00  0.14144E+01
0.47765E+00  -.62854E+00  0.13563E+01
-.21025E+00  -.53219E+00  0.10502E+01
0.13370E+00  -.58037E+00  0.13853E+01
0.13370E+00  -.58037E+00  0.10212E+01
0.47765E+00  -.62854E+00  0.13563E+01
-.21025E+00  -.53219E+00  0.14144E+01
0.47765E+00  -.62854E+00  0.20900E+01
0.13370E+00  -.58037E+00  0.13853E+01
0.13370E+00  -.58037E+00  0.17522E+01
0.47765E+00  -.62854E+00  0.17231E+01
-.21025E+00  -.53219E+00  0.14144E+01
-.21025E+00  -.53219E+00  0.21813E+01
0.47765E+00  -.62854E+00  0.20900E+01
-.21025E+00  -.53219E+00  0.17978E+01
0.13370E+00  -.58037E+00  0.21356E+01
0.13370E+00  -.58037E+00  0.17522E+01
0.47765E+00  -.62854E+00  0.20900E+01
-.21025E+00  -.53219E+00  0.21813E+01
0.47765E+00  -.62854E+00  0.28601E+01
0.13370E+00  -.58037E+00  0.21356E+01
0.13370E+00  -.58037E+00  0.25207E+01
0.47765E+00  -.62854E+00  0.24750E+01
0.47765E+00  -.62854E+00  0.44253E+01
0.47765E+00  -.62854E+00  0.36650E+01
-.21025E+00  -.53219E+00  0.38242E+01
0.47765E+00  -.62854E+00  0.40452E+01
0.13370E+00  -.58037E+00  0.37446E+01
0.13370E+00  -.58037E+00  0.41248E+01
-.21025E+00  -.53219E+00  0.38242E+01
0.47765E+00  -.62854E+00  0.36650E+01
-.21025E+00  -.53219E+00  0.29852E+01
0.13370E+00  -.58037E+00  0.37446E+01
0.13370E+00  -.58037E+00  0.33251E+01
-.21025E+00  -.53219E+00  0.34047E+01
-.21025E+00  -.53219E+00  0.21813E+01
-.21025E+00  -.53219E+00  0.29852E+01
0.47765E+00  -.62854E+00  0.28601E+01
-.21025E+00  -.53219E+00  0.25832E+01
0.13370E+00  -.58037E+00  0.29227E+01
0.13370E+00  -.58037E+00  0.25207E+01
0.47765E+00  -.62854E+00  0.28601E+01
-.21025E+00  -.53219E+00  0.29852E+01
0.47765E+00  -.62854E+00  0.36650E+01
0.13370E+00  -.58037E+00  0.29227E+01
0.13370E+00  -.58037E+00  0.33251E+01
0.47765E+00  -.62854E+00  0.32626E+01
-.53219E+00  0.71025E+00  0.70000E+01
-.56316E+00  0.48917E+00  0.70000E+01
-.53219E+00  0.71025E+00  0.67305E+01
-.54768E+00  0.59971E+00  0.70000E+01
-.54768E+00  0.59971E+00  0.68653E+01
-.53219E+00  0.71025E+00  0.68653E+01
-.56316E+00  0.48917E+00  0.70000E+01
-.59454E+00  0.26512E+00  0.70000E+01
-.57986E+00  0.36991E+00  0.66837E+01
-.57885E+00  0.37714E+00  0.70000E+01
-.58720E+00  0.31751E+00  0.68419E+01
-.57151E+00  0.42954E+00  0.68419E+01
-.59454E+00  0.26512E+00  0.70000E+01
-.62854E+00  0.22351E-01  0.70000E+01
[...]
POINT_DATA     1944
SCALARS scalars float 1
LOOKUP_TABLE default
0.80000E+01
0.80000E+01
0.80000E+01
0.80000E+01
0.80000E+01
0.80000E+01
0.80000E+01
0.80000E+01
0.80000E+01
0.80000E+01
0.80000E+01
0.80000E+01
0.80000E+01
0.80000E+01
0.80000E+01
0.80000E+01
0.80000E+01
0.80000E+01
0.80000E+01
0.80000E+01
0.80000E+01
0.80000E+01
0.80000E+01
0.80000E+01
0.80000E+01
0.80000E+01
0.80000E+01
0.80000E+01
0.80000E+01
0.80000E+01
0.80000E+01
0.80000E+01
0.80000E+01
0.80000E+01
0.80000E+01
0.80000E+01
0.80000E+01
0.80000E+01
0.80000E+01
0.80000E+01
0.80000E+01
0.80000E+01
0.80000E+01
0.80000E+01
0.80000E+01
0.80000E+01
0.80000E+01
0.80000E+01
0.80000E+01
0.80000E+01
0.80000E+01
0.80000E+01
0.80000E+01
0.80000E+01
0.80000E+01
0.80000E+01
0.80000E+01
0.80000E+01
0.80000E+01
0.80000E+01
0.80000E+01
0.80000E+01
0.80000E+01
0.80000E+01
0.80000E+01
0.80000E+01
0.80000E+01
0.80000E+01
0.80000E+01
0.80000E+01
0.80000E+01
0.80000E+01
0.80000E+01
0.80000E+01
0.80000E+01
0.80000E+01
0.80000E+01
0.80000E+01
0.80000E+01
0.80000E+01
0.80000E+01
0.80000E+01
0.80000E+01
0.80000E+01
0.80000E+01
0.80000E+01
0.80000E+01
0.80000E+01
0.80000E+01
0.80000E+01
0.80000E+01
0.80000E+01
0.80000E+01
0.80000E+01
0.80000E+01
0.80000E+01
0.80000E+01
0.80000E+01
0.80000E+01
0.80000E+01
0.80000E+01
0.80000E+01
0.80000E+01
0.80000E+01
0.80000E+01
0.80000E+01
0.80000E+01
0.80000E+01
0.66609E+01
0.70000E+01
0.70000E+01
0.68304E+01
0.70000E+01
0.68304E+01
0.62572E+01
0.66609E+01
0.66281E+01
0.64591E+01
0.66445E+01
0.64427E+01
0.70000E+01
0.70000E+01
0.66281E+01
0.70000E+01
0.68141E+01
0.68141E+01
0.57800E+01
0.62572E+01
0.61919E+01
0.60186E+01
0.62246E+01
0.59860E+01
0.66281E+01
0.61919E+01
0.62572E+01
0.64100E+01
0.62246E+01
0.64427E+01
0.61919E+01
0.56839E+01
0.57800E+01
0.59379E+01
0.57320E+01
0.59860E+01
0.66609E+01
0.70000E+01
0.66281E+01
0.68304E+01
0.68141E+01
0.66445E+01
0.52205E+01
0.57800E+01
0.56839E+01
0.55003E+01
0.57320E+01
0.54522E+01
0.56839E+01
0.50970E+01
0.52205E+01
0.53904E+01
0.51587E+01
0.54522E+01
0.45707E+01
0.52205E+01
0.50970E+01
0.48956E+01
0.51587E+01
0.48338E+01
0.00000E+00
0.00000E+00
0.68609E+00
0.00000E+00
0.34304E+00
0.34304E+00
0.50970E+01
0.44253E+01
0.45707E+01
0.47612E+01
0.44980E+01
0.48338E+01
0.66040E+00
0.00000E+00
0.68609E+00
0.33020E+00
0.34304E+00
0.67324E+00
0.13563E+01
0.66040E+00
0.68609E+00
0.10083E+01
0.67324E+00
0.10212E+01
0.45707E+01
0.44253E+01
0.38242E+01
0.44980E+01
0.41248E+01
0.41974E+01
0.68609E+00
0.14144E+01
0.13563E+01
0.10502E+01
0.13853E+01
0.10212E+01
0.13563E+01
0.14144E+01
0.20900E+01
0.13853E+01
0.17522E+01
0.17231E+01
0.14144E+01
0.21813E+01
0.20900E+01
0.17978E+01
0.21356E+01
0.17522E+01
0.20900E+01
0.21813E+01
0.28601E+01
0.21356E+01
0.25207E+01
0.24750E+01
0.44253E+01
0.36650E+01
0.38242E+01
0.40452E+01
0.37446E+01
0.41248E+01
0.38242E+01
0.36650E+01
0.29852E+01
0.37446E+01
0.33251E+01
0.34047E+01
0.21813E+01
0.29852E+01
0.28601E+01
0.25832E+01
0.29227E+01
0.25207E+01
0.28601E+01
0.29852E+01
0.36650E+01
0.29227E+01
0.33251E+01
0.32626E+01
0.70000E+01
0.70000E+01
0.67305E+01
0.70000E+01
0.68653E+01
0.68653E+01
0.70000E+01
0.70000E+01
0.66837E+01
0.70000E+01
0.68419E+01
0.68419E+01
0.70000E+01
0.70000E+01
0.66775E+01
0.70000E+01
0.68387E+01
0.68387E+01
0.64036E+01
0.67305E+01
0.66837E+01
0.65671E+01
0.67071E+01
0.65437E+01
0.66837E+01
0.70000E+01
0.66775E+01
0.68419E+01
0.68387E+01
0.66806E+01
0.70000E+01
0.66837E+01
0.67305E+01
0.68419E+01
0.67071E+01
0.68653E+01
0.60096E+01
0.64036E+01
0.62907E+01
0.62066E+01
0.63471E+01
0.61501E+01
0.66775E+01
0.62907E+01
0.66837E+01
0.64841E+01
0.64872E+01
0.66806E+01
0.55384E+01
0.60096E+01
0.58298E+01
0.57740E+01
0.59197E+01
0.56841E+01
0.62907E+01
0.58298E+01
0.60096E+01
0.60602E+01
0.59197E+01
0.61501E+01
0.64036E+01
0.66837E+01
0.62907E+01
0.65437E+01
0.64872E+01
0.63471E+01
0.49801E+01
0.55384E+01
0.52853E+01
0.52593E+01
0.54118E+01
0.51327E+01
0.58298E+01
0.52853E+01
0.55384E+01
0.55576E+01
0.54118E+01
0.56841E+01
0.00000E+00
0.64501E+00
0.00000E+00
0.32250E+00
0.32250E+00
0.00000E+00
0.52853E+01
0.46479E+01
0.49801E+01
0.49666E+01
0.48140E+01
0.51327E+01
0.64501E+00
0.13214E+01
0.70290E+00
0.98319E+00
0.10121E+01
0.67395E+00
0.43259E+01
0.49801E+01
0.46479E+01
0.46530E+01
0.48140E+01
0.44869E+01
0.13214E+01
0.20350E+01
0.14523E+01
0.16782E+01
0.17437E+01
0.13868E+01
0.70290E+00
0.00000E+00
0.64501E+00
0.35145E+00
0.32250E+00
0.67395E+00
0.13214E+01
0.14523E+01
0.70290E+00
0.13868E+01
0.10776E+01
0.10121E+01
0.46479E+01
0.39100E+01
0.43259E+01
0.42789E+01
0.41179E+01
0.44869E+01
0.20350E+01
0.27848E+01
0.22408E+01
0.24099E+01
0.25128E+01
0.21379E+01
0.20350E+01
0.22408E+01
0.14523E+01
0.21379E+01
0.18465E+01
0.17437E+01
0.35691E+01
0.43259E+01
0.39100E+01
0.39475E+01
0.41179E+01
0.37395E+01
0.35691E+01
0.39100E+01
0.30667E+01
0.37395E+01
0.34883E+01
0.33179E+01
0.27848E+01
0.35691E+01
0.30667E+01
0.31769E+01
0.33179E+01
0.29257E+01
0.27848E+01
0.30667E+01
0.22408E+01
0.29257E+01
0.26537E+01
0.25128E+01
0.66775E+01
0.70000E+01
0.70000E+01
0.68387E+01
0.70000E+01
0.68387E+01
0.70000E+01
0.66609E+01
0.70000E+01
0.68304E+01
0.68304E+01
0.70000E+01
0.62907E+01
0.66775E+01
0.65773E+01
0.64841E+01
0.66274E+01
0.64340E+01
0.66609E+01
0.62572E+01
0.65773E+01
0.64591E+01
0.64172E+01
0.66191E+01
0.66609E+01
0.65773E+01
0.70000E+01
0.66191E+01
0.67886E+01
0.68304E+01
0.65773E+01
0.62572E+01
0.62907E+01
0.64172E+01
0.62739E+01
0.64340E+01
0.65773E+01
0.66775E+01
0.70000E+01
0.66274E+01
0.68387E+01
0.67886E+01
0.62907E+01
0.62572E+01
0.58298E+01
0.62739E+01
0.60435E+01
0.60602E+01
0.62572E+01
0.57800E+01
0.58298E+01
0.60186E+01
0.58049E+01
0.60435E+01
0.52853E+01
0.58298E+01
0.57800E+01
0.55576E+01
0.58049E+01
0.55327E+01
0.57800E+01
0.52205E+01
0.52853E+01
0.55003E+01
0.52529E+01
0.55327E+01
0.00000E+00
0.00000E+00
0.70290E+00
0.00000E+00
0.35145E+00
0.35145E+00
0.46479E+01
0.52853E+01
0.52205E+01
0.49666E+01
0.52529E+01
0.49342E+01
0.52205E+01
0.45707E+01
0.46479E+01
0.48956E+01
0.46093E+01
0.49342E+01
0.68609E+00
0.00000E+00
0.70290E+00
0.34304E+00
0.35145E+00
0.69449E+00
0.39100E+01
0.46479E+01
0.45707E+01
0.42789E+01
0.46093E+01
0.42403E+01
0.14144E+01
0.68609E+00
0.70290E+00
0.10502E+01
0.69449E+00
0.10587E+01
0.70290E+00
0.14523E+01
0.14144E+01
0.10776E+01
0.14334E+01
0.10587E+01
0.14144E+01
0.14523E+01
0.21813E+01
0.14334E+01
0.18168E+01
0.17978E+01
0.45707E+01
0.38242E+01
0.39100E+01
0.41974E+01
0.38671E+01
0.42403E+01
0.39100E+01
0.38242E+01
0.30667E+01
0.38671E+01
0.34454E+01
0.34883E+01
0.14523E+01
0.22408E+01
0.21813E+01
0.18465E+01
0.22110E+01
0.18168E+01
0.21813E+01
0.22408E+01
0.29852E+01
0.22110E+01
0.26130E+01
0.25832E+01
0.22408E+01
0.30667E+01
0.29852E+01
0.26537E+01
0.30259E+01
0.26130E+01
0.29852E+01
0.30667E+01
0.38242E+01
0.30259E+01
0.34454E+01
0.34047E+01
0.70000E+01
0.70000E+01
0.67136E+01
0.70000E+01
0.68568E+01
0.68568E+01
0.70000E+01
0.70000E+01
0.67305E+01
0.70000E+01
0.68653E+01
0.68653E+01
0.67305E+01
0.64036E+01
0.67136E+01
0.65671E+01
0.65586E+01
0.67221E+01
0.64036E+01
0.60096E+01
0.63594E+01
0.62066E+01
0.61845E+01
0.63815E+01
0.63594E+01
0.67136E+01
0.64036E+01
0.65365E+01
0.65586E+01
0.63815E+01
0.67136E+01
0.70000E+01
0.67305E+01
0.68568E+01
0.68653E+01
0.67221E+01
0.59247E+01
0.63594E+01
0.60096E+01
0.61420E+01
0.61845E+01
0.59671E+01
0.60096E+01
0.55384E+01
0.59247E+01
0.57740E+01
0.57315E+01
0.59671E+01
0.00000E+00
0.00000E+00
0.64501E+00
0.00000E+00
0.32250E+00
0.32250E+00
0.55384E+01
0.49801E+01
0.53958E+01
0.52593E+01
0.51879E+01
0.54671E+01
0.55384E+01
0.53958E+01
0.59247E+01
0.54671E+01
0.56602E+01
0.57315E+01
0.49801E+01
0.43259E+01
0.47594E+01
0.46530E+01
0.45427E+01
0.48698E+01
0.49801E+01
0.47594E+01
0.53958E+01
0.48698E+01
0.50776E+01
0.51879E+01
0.13214E+01
0.64501E+00
0.69703E+00
0.98319E+00
0.67102E+00
0.10092E+01
0.69703E+00
0.64501E+00
0.00000E+00
0.67102E+00
0.32250E+00
0.34852E+00
0.47594E+01
0.43259E+01
0.40037E+01
0.45427E+01
0.41648E+01
0.43816E+01
0.40037E+01
0.43259E+01
0.35691E+01
0.41648E+01
0.39475E+01
0.37864E+01
0.40037E+01
0.35691E+01
0.31202E+01
0.37864E+01
0.33446E+01
0.35620E+01
0.31202E+01
0.35691E+01
0.27848E+01
0.33446E+01
0.31769E+01
0.29525E+01
0.31202E+01
0.27848E+01
0.22603E+01
0.29525E+01
0.25226E+01
0.26902E+01
0.20350E+01
0.13214E+01
0.14521E+01
0.16782E+01
0.13867E+01
0.17436E+01
0.14521E+01
0.13214E+01
0.69703E+00
0.13867E+01
0.10092E+01
0.10746E+01
0.22603E+01
0.27848E+01
0.20350E+01
0.25226E+01
0.24099E+01
0.21477E+01
0.22603E+01
0.20350E+01
0.14521E+01
0.21477E+01
0.17436E+01
0.18562E+01
0.70000E+01
0.70000E+01
0.66281E+01
0.70000E+01
0.68141E+01
0.68141E+01
0.70000E+01
0.70000E+01
0.65459E+01
0.70000E+01
0.67730E+01
0.67730E+01
0.56839E+01
0.61919E+01
0.60233E+01
0.59379E+01
0.61076E+01
0.58536E+01
0.61919E+01
0.66281E+01
0.65459E+01
0.64100E+01
0.65870E+01
0.63689E+01
0.66281E+01
0.70000E+01
0.65459E+01
0.68141E+01
0.67730E+01
0.65870E+01
0.50970E+01
0.56839E+01
0.54258E+01
0.53904E+01
0.55548E+01
0.52614E+01
0.65459E+01
0.60233E+01
0.61919E+01
0.62846E+01
0.61076E+01
0.63689E+01
0.60233E+01
0.54258E+01
0.56839E+01
0.57245E+01
0.55548E+01
0.58536E+01
0.00000E+00
0.00000E+00
0.66040E+00
0.00000E+00
0.33020E+00
0.33020E+00
0.44253E+01
0.50970E+01
0.47482E+01
0.47612E+01
0.49226E+01
0.45868E+01
0.54258E+01
0.47482E+01
0.50970E+01
0.50870E+01
0.49226E+01
0.52614E+01
0.44253E+01
0.47482E+01
0.39868E+01
0.45868E+01
0.43675E+01
0.42061E+01
0.66040E+00
0.13563E+01
0.71803E+00
0.10083E+01
0.10372E+01
0.68921E+00
0.66040E+00
0.71803E+00
0.00000E+00
0.68921E+00
0.35902E+00
0.33020E+00
0.13563E+01
0.20900E+01
0.14864E+01
0.17231E+01
0.17882E+01
0.14213E+01
0.13563E+01
0.14864E+01
0.71803E+00
0.14213E+01
0.11022E+01
0.10372E+01
0.20900E+01
0.28601E+01
0.22942E+01
0.24750E+01
0.25772E+01
0.21921E+01
0.20900E+01
0.22942E+01
0.14864E+01
0.21921E+01
0.18903E+01
0.17882E+01
0.36650E+01
0.44253E+01
0.39868E+01
0.40452E+01
0.42061E+01
0.38259E+01
0.36650E+01
0.39868E+01
0.31398E+01
0.38259E+01
0.35633E+01
0.34024E+01
0.28601E+01
0.36650E+01
0.31398E+01
0.32626E+01
0.34024E+01
0.30000E+01
0.28601E+01
0.31398E+01
0.22942E+01
0.30000E+01
0.27170E+01
0.25772E+01
0.70000E+01
0.70000E+01
0.73038E+01
0.70000E+01
0.71519E+01
0.71519E+01
0.70000E+01
0.67136E+01
0.69610E+01
0.68568E+01
0.68373E+01
0.69805E+01
0.76239E+01
0.73038E+01
0.74818E+01
0.74638E+01
0.73928E+01
0.75528E+01
0.69610E+01
0.67136E+01
0.64373E+01
0.68373E+01
0.65755E+01
0.66991E+01
0.70000E+01
0.69610E+01
0.74818E+01
0.69805E+01
0.72214E+01
0.72409E+01
0.67136E+01
0.63594E+01
0.64373E+01
0.65365E+01
0.63984E+01
0.65755E+01
0.64373E+01
0.63594E+01
0.59247E+01
0.63984E+01
0.61420E+01
0.61810E+01
0.73038E+01
0.70000E+01
0.74818E+01
0.71519E+01
0.72409E+01
0.73928E+01
0.76239E+01
0.74818E+01
0.80000E+01
0.75528E+01
0.77409E+01
0.78119E+01
0.80000E+01
0.76239E+01
0.80000E+01
0.78119E+01
0.78119E+01
0.80000E+01
0.69610E+01
0.64373E+01
0.66520E+01
0.66991E+01
0.65446E+01
0.68065E+01
0.80000E+01
0.80000E+01
0.74818E+01
0.80000E+01
0.77409E+01
0.77409E+01
0.80000E+01
0.80000E+01
0.73645E+01
0.80000E+01
0.76823E+01
0.76823E+01
0.66520E+01
0.64373E+01
0.61025E+01
0.65446E+01
0.62699E+01
0.63772E+01
0.69610E+01
0.66520E+01
0.73645E+01
0.68065E+01
0.70083E+01
0.71628E+01
0.59247E+01
0.53958E+01
0.56602E+01
0.56602E+01
0.55280E+01
0.57924E+01
0.80000E+01
0.80000E+01
0.71769E+01
0.80000E+01
0.75885E+01
0.75885E+01
0.00000E+00
0.00000E+00
0.68659E+00
0.00000E+00
0.34330E+00
0.34330E+00
0.61025E+01
0.64373E+01
0.59247E+01
0.62699E+01
0.61810E+01
0.60136E+01
0.66520E+01
0.61025E+01
0.63944E+01
0.63772E+01
0.62485E+01
0.65232E+01
0.73645E+01
0.80000E+01
0.74818E+01
0.76823E+01
0.77409E+01
0.74232E+01
0.80000E+01
0.73645E+01
0.80000E+01
0.76823E+01
0.76823E+01
0.80000E+01
0.80000E+01
0.73645E+01
0.71769E+01
0.76823E+01
0.72707E+01
0.75885E+01
0.00000E+00
0.00000E+00
0.69703E+00
0.00000E+00
0.34852E+00
0.34852E+00
0.00000E+00
0.00000E+00
0.60153E+00
0.00000E+00
0.30076E+00
0.30076E+00
0.00000E+00
0.00000E+00
0.67157E+00
0.00000E+00
0.33578E+00
0.33578E+00
0.56602E+01
0.53958E+01
0.47418E+01
0.55280E+01
0.50688E+01
0.52010E+01
0.59247E+01
0.56602E+01
0.61025E+01
0.57924E+01
0.58814E+01
0.60136E+01
0.61025E+01
0.56602E+01
0.55736E+01
0.58814E+01
0.56169E+01
0.58381E+01
0.73826E+01
0.80000E+01
0.80000E+01
0.76913E+01
0.80000E+01
0.76913E+01
0.00000E+00
0.00000E+00
0.69978E+00
0.00000E+00
0.34989E+00
0.34989E+00
0.74818E+01
0.69610E+01
0.73645E+01
0.72214E+01
0.71628E+01
0.74232E+01
0.53958E+01
0.47594E+01
0.47418E+01
0.50776E+01
0.47506E+01
0.50688E+01
0.47418E+01
0.47594E+01
0.40037E+01
0.47506E+01
0.43816E+01
0.43728E+01
0.80000E+01
0.71769E+01
0.73826E+01
0.75885E+01
0.72798E+01
0.76913E+01
0.67235E+01
0.73826E+01
0.71769E+01
0.70531E+01
0.72798E+01
0.69502E+01
0.68659E+00
0.00000E+00
0.67157E+00
0.34330E+00
0.33578E+00
0.67908E+00
0.00000E+00
0.68659E+00
0.69978E+00
0.34330E+00
0.69319E+00
0.34989E+00
0.69978E+00
0.68659E+00
0.14471E+01
0.69319E+00
0.10669E+01
0.10735E+01
0.60153E+00
0.00000E+00
0.69978E+00
0.30076E+00
0.34989E+00
0.65065E+00
0.60153E+00
0.69978E+00
0.14877E+01
0.65065E+00
0.10937E+01
0.10446E+01
0.00000E+00
0.60153E+00
0.69703E+00
0.30076E+00
0.64928E+00
0.34852E+00
0.63944E+01
0.61025E+01
0.55736E+01
0.62485E+01
0.58381E+01
0.59840E+01
0.66520E+01
0.63944E+01
0.73645E+01
0.65232E+01
0.68795E+01
0.70083E+01
0.67157E+00
0.13760E+01
0.68659E+00
0.10238E+01
0.10313E+01
0.67908E+00
0.60230E+01
0.67235E+01
0.63733E+01
0.63733E+01
0.65484E+01
0.61981E+01
0.56602E+01
0.47418E+01
0.55736E+01
0.52010E+01
0.51577E+01
0.56169E+01
0.13760E+01
0.21129E+01
0.14471E+01
0.17445E+01
0.17800E+01
0.14116E+01
0.52815E+01
0.60230E+01
0.56523E+01
0.56523E+01
0.58376E+01
0.54669E+01
0.14521E+01
0.69703E+00
0.60153E+00
0.10746E+01
0.64928E+00
0.10268E+01
0.21129E+01
0.28811E+01
0.23199E+01
0.24970E+01
0.26005E+01
0.22164E+01
0.44998E+01
0.52815E+01
0.48907E+01
0.48907E+01
0.50861E+01
0.46952E+01
0.28811E+01
0.36795E+01
0.32803E+01
0.32803E+01
0.34799E+01
0.30807E+01
0.22603E+01
0.14521E+01
0.14877E+01
0.18562E+01
0.14699E+01
0.18740E+01
0.63733E+01
0.67235E+01
0.71769E+01
0.65484E+01
0.69502E+01
0.67751E+01
0.60230E+01
0.63733E+01
0.56523E+01
0.61981E+01
0.60128E+01
0.58376E+01
0.56523E+01
0.63733E+01
0.63944E+01
0.60128E+01
0.63838E+01
0.60233E+01
0.36795E+01
0.44998E+01
0.40897E+01
0.40897E+01
0.42947E+01
0.38846E+01
0.63944E+01
0.55736E+01
0.56523E+01
0.59840E+01
0.56129E+01
0.60233E+01
0.56523E+01
0.55736E+01
0.48907E+01
0.56129E+01
0.52321E+01
0.52715E+01
0.56523E+01
0.48907E+01
0.52815E+01
0.52715E+01
0.50861E+01
0.54669E+01
0.31202E+01
0.22603E+01
0.26902E+01
0.26902E+01
0.24753E+01
0.29052E+01
0.40037E+01
0.31202E+01
0.35620E+01
0.35620E+01
0.33411E+01
0.37828E+01
0.23199E+01
0.28811E+01
0.32803E+01
0.26005E+01
0.30807E+01
0.28001E+01
0.23199E+01
0.32803E+01
0.26902E+01
0.28001E+01
0.29853E+01
0.25051E+01
0.21129E+01
0.23199E+01
0.14471E+01
0.22164E+01
0.18835E+01
0.17800E+01
0.63944E+01
0.63733E+01
0.71769E+01
0.63838E+01
0.67751E+01
0.67857E+01
0.14471E+01
0.68659E+00
0.13760E+01
0.10669E+01
0.10313E+01
0.14116E+01
0.69978E+00
0.14471E+01
0.14877E+01
0.10735E+01
0.14674E+01
0.10937E+01
0.14877E+01
0.23199E+01
0.26902E+01
0.19038E+01
0.25051E+01
0.20890E+01
0.44998E+01
0.48907E+01
0.40897E+01
0.46952E+01
0.44902E+01
0.42947E+01
0.40897E+01
0.48907E+01
0.47418E+01
0.44902E+01
0.48162E+01
0.44157E+01
0.60153E+00
0.14877E+01
0.14521E+01
0.10446E+01
0.14699E+01
0.10268E+01
0.32803E+01
0.36795E+01
0.40897E+01
0.34799E+01
0.38846E+01
0.36850E+01
0.32803E+01
0.40897E+01
0.35620E+01
0.36850E+01
0.38258E+01
0.34211E+01
0.26902E+01
0.22603E+01
0.14877E+01
0.24753E+01
0.18740E+01
0.20890E+01
0.31202E+01
0.26902E+01
0.35620E+01
0.29052E+01
0.31261E+01
0.33411E+01
0.35620E+01
0.26902E+01
0.32803E+01
0.31261E+01
0.29853E+01
0.34211E+01
0.55736E+01
0.47418E+01
0.48907E+01
0.51577E+01
0.48162E+01
0.52321E+01
0.40037E+01
0.35620E+01
0.47418E+01
0.37828E+01
0.41519E+01
0.43728E+01
0.14471E+01
0.23199E+01
0.14877E+01
0.18835E+01
0.19038E+01
0.14674E+01
0.71769E+01
0.73645E+01
0.63944E+01
0.72707E+01
0.68795E+01
0.67857E+01
0.35620E+01
0.40897E+01
0.47418E+01
0.38258E+01
0.44157E+01
0.41519E+01
0.70000E+01
0.70000E+01
0.73038E+01
0.70000E+01
0.71519E+01
0.71519E+01
0.70000E+01
0.70000E+01
0.74674E+01
0.70000E+01
0.72337E+01
0.72337E+01
0.70000E+01
0.70000E+01
0.73992E+01
0.70000E+01
0.71996E+01
0.71996E+01
0.73038E+01
0.76239E+01
0.73992E+01
0.74638E+01
0.75115E+01
0.73515E+01
0.70000E+01
0.70000E+01
0.74204E+01
0.70000E+01
0.72102E+01
0.72102E+01
0.76239E+01
0.80000E+01
0.80000E+01
0.78119E+01
0.80000E+01
0.78119E+01
0.73992E+01
0.70000E+01
0.73038E+01
0.71996E+01
0.71519E+01
0.73515E+01
0.70000E+01
0.73992E+01
0.74674E+01
0.71996E+01
0.74333E+01
0.72337E+01
0.74674E+01
0.73992E+01
0.80000E+01
0.74333E+01
0.76996E+01
0.77337E+01
0.70000E+01
0.74674E+01
0.74204E+01
0.72337E+01
0.74439E+01
0.72102E+01
0.74204E+01
0.74674E+01
0.80000E+01
0.74439E+01
0.77337E+01
0.77102E+01
0.80000E+01
0.80000E+01
0.74674E+01
0.80000E+01
0.77337E+01
0.77337E+01
0.65459E+01
0.70000E+01
0.69022E+01
0.67730E+01
0.69511E+01
0.67241E+01
0.70000E+01
0.70000E+01
0.74670E+01
0.70000E+01
0.72335E+01
0.72335E+01
0.70000E+01
0.74204E+01
0.74670E+01
0.72102E+01
0.74437E+01
0.72335E+01
0.74670E+01
0.74204E+01
0.80000E+01
0.74437E+01
0.77102E+01
0.77335E+01
0.80000E+01
0.80000E+01
0.74204E+01
0.80000E+01
0.77102E+01
0.77102E+01
0.70000E+01
0.74670E+01
0.74765E+01
0.72335E+01
0.74717E+01
0.72382E+01
0.60233E+01
0.65459E+01
0.62846E+01
0.62846E+01
0.64153E+01
0.61539E+01
0.69022E+01
0.70000E+01
0.74765E+01
0.69511E+01
0.72382E+01
0.71893E+01
0.65459E+01
0.69022E+01
0.62846E+01
0.67241E+01
0.65934E+01
0.64153E+01
0.62846E+01
0.69022E+01
0.67235E+01
0.65934E+01
0.68129E+01
0.65041E+01
0.73992E+01
0.76239E+01
0.80000E+01
0.75115E+01
0.78119E+01
0.76996E+01
0.80000E+01
0.80000E+01
0.74765E+01
0.80000E+01
0.77382E+01
0.77382E+01
0.54258E+01
0.60233E+01
0.57245E+01
0.57245E+01
0.58739E+01
0.55751E+01
0.74670E+01
0.80000E+01
0.80000E+01
0.77335E+01
0.80000E+01
0.77335E+01
0.74765E+01
0.80000E+01
0.73826E+01
0.77382E+01
0.76913E+01
0.74295E+01
0.80000E+01
0.74765E+01
0.74670E+01
0.77382E+01
0.74717E+01
0.77335E+01
0.60233E+01
0.62846E+01
0.57245E+01
0.61539E+01
0.60046E+01
0.58739E+01
0.57245E+01
0.62846E+01
0.60230E+01
0.60046E+01
0.61538E+01
0.58738E+01
0.80000E+01
0.80000E+01
0.73826E+01
0.80000E+01
0.76913E+01
0.76913E+01
0.00000E+00
0.00000E+00
0.71803E+00
0.00000E+00
0.35902E+00
0.35902E+00
0.73826E+01
0.67235E+01
0.69022E+01
0.70531E+01
0.68129E+01
0.71424E+01
0.67157E+00
0.00000E+00
0.00000E+00
0.33578E+00
0.00000E+00
0.33578E+00
0.47482E+01
0.54258E+01
0.50870E+01
0.50870E+01
0.52564E+01
0.49176E+01
0.67235E+01
0.60230E+01
0.62846E+01
0.63733E+01
0.61538E+01
0.65041E+01
0.54258E+01
0.57245E+01
0.50870E+01
0.55751E+01
0.54057E+01
0.52564E+01
0.50870E+01
0.57245E+01
0.52815E+01
0.54057E+01
0.55030E+01
0.51842E+01
0.50870E+01
0.52815E+01
0.44998E+01
0.51842E+01
0.48907E+01
0.47934E+01
0.13760E+01
0.67157E+00
0.85041E+00
0.10238E+01
0.76099E+00
0.11132E+01
0.69022E+01
0.74765E+01
0.73826E+01
0.71893E+01
0.74295E+01
0.71424E+01
0.60230E+01
0.52815E+01
0.57245E+01
0.56523E+01
0.55030E+01
0.58738E+01
0.21129E+01
0.13760E+01
0.14864E+01
0.17445E+01
0.14312E+01
0.17996E+01
0.39868E+01
0.47482E+01
0.44998E+01
0.43675E+01
0.46240E+01
0.42433E+01
0.28811E+01
0.21129E+01
0.22942E+01
0.24970E+01
0.22035E+01
0.25877E+01
0.71803E+00
0.14864E+01
0.85041E+00
0.11022E+01
0.11684E+01
0.78422E+00
0.85041E+00
0.14864E+01
0.13760E+01
0.11684E+01
0.14312E+01
0.11132E+01
0.71803E+00
0.85041E+00
0.00000E+00
0.78422E+00
0.42520E+00
0.35902E+00
0.47482E+01
0.50870E+01
0.44998E+01
0.49176E+01
0.47934E+01
0.46240E+01
0.36795E+01
0.28811E+01
0.31398E+01
0.32803E+01
0.30104E+01
0.34096E+01
0.14864E+01
0.22942E+01
0.21129E+01
0.18903E+01
0.22035E+01
0.17996E+01
0.85041E+00
0.67157E+00
0.00000E+00
0.76099E+00
0.33578E+00
0.42520E+00
0.44998E+01
0.36795E+01
0.39868E+01
0.40897E+01
0.38331E+01
0.42433E+01
0.22942E+01
0.31398E+01
0.28811E+01
0.27170E+01
0.30104E+01
0.25877E+01
0.31398E+01
0.39868E+01
0.36795E+01
0.35633E+01
0.38331E+01