# vtk DataFile Version 3.0
vtk output
ASCII
DATASET UNSTRUCTURED_GRID
POINTS    19824 float
0.56000E+01  0.00000E+00  -.10000E+01
0.52327E+01  -.15862E+00  -.10000E+01
0.52401E+01  0.15763E+00  -.10000E+01
0.55006E+01  -.10294E+00  -.10000E+01
0.52364E+01  -.49400E-03  -.10000E+01
0.55029E+01  0.10206E+00  -.10000E+01
-.18536E+01  -.28231E+00  -.10000E+01
-.21000E+01  0.00000E+00  -.10000E+01
-.18587E+01  0.28103E+00  -.10000E+01
-.20523E+01  -.16860E+00  -.10000E+01
-.20533E+01  0.16727E+00  -.10000E+01
-.18562E+01  -.64100E-03  -.10000E+01
0.52401E+01  0.15763E+00  -.10000E+01
0.52327E+01  -.15862E+00  -.10000E+01
0.48061E+01  0.20478E+00  -.10000E+01
0.52364E+01  -.49400E-03  -.10000E+01
0.50194E+01  0.23082E-01  -.10000E+01
0.50217E+01  0.18233E+00  -.10000E+01
-.14268E+01  -.35995E+00  -.10000E+01
-.18536E+01  -.28231E+00  -.10000E+01
-.14434E+01  0.35544E+00  -.10000E+01
-.16382E+01  -.31671E+00  -.10000E+01
-.16485E+01  0.36560E-01  -.10000E+01
-.14351E+01  -.22580E-02  -.10000E+01
-.18587E+01  0.28103E+00  -.10000E+01
-.14434E+01  0.35544E+00  -.10000E+01
-.18536E+01  -.28231E+00  -.10000E+01
-.16508E+01  0.31499E+00  -.10000E+01
-.16485E+01  0.36560E-01  -.10000E+01
-.18562E+01  -.64100E-03  -.10000E+01
-.14434E+01  0.35544E+00  -.10000E+01
-.10133E+01  0.42725E+00  -.10000E+01
-.10844E+01  0.85033E-01  -.10000E+01
-.12393E+01  0.40400E+00  -.10000E+01
-.10489E+01  0.25614E+00  -.10000E+01
-.12639E+01  0.22023E+00  -.10000E+01
0.52327E+01  -.15862E+00  -.10000E+01
0.47819E+01  -.20739E+00  -.10000E+01
0.48061E+01  0.20478E+00  -.10000E+01
0.50050E+01  -.18404E+00  -.10000E+01
0.47940E+01  -.13020E-02  -.10000E+01
0.50194E+01  0.23082E-01  -.10000E+01
0.48061E+01  0.20478E+00  -.10000E+01
0.47819E+01  -.20739E+00  -.10000E+01
0.43585E+01  0.25499E+00  -.10000E+01
0.47940E+01  -.13020E-02  -.10000E+01
0.45702E+01  0.23799E-01  -.10000E+01
0.45761E+01  0.23012E+00  -.10000E+01
-.97710E+00  -.42897E+00  -.10000E+01
-.14268E+01  -.35995E+00  -.10000E+01
-.10844E+01  0.85033E-01  -.10000E+01
-.12138E+01  -.40802E+00  -.10000E+01
-.12556E+01  -.13746E+00  -.10000E+01
-.10308E+01  -.17197E+00  -.10000E+01
-.10844E+01  0.85033E-01  -.10000E+01
-.14268E+01  -.35995E+00  -.10000E+01
-.14434E+01  0.35544E+00  -.10000E+01
-.12556E+01  -.13746E+00  -.10000E+01
-.14351E+01  -.22580E-02  -.10000E+01
-.12639E+01  0.22023E+00  -.10000E+01
-.97710E+00  -.42897E+00  -.10000E+01
-.10844E+01  0.85033E-01  -.10000E+01
-.56144E+00  0.43140E+00  -.10000E+01
-.10308E+01  -.17197E+00  -.10000E+01
-.82293E+00  0.25822E+00  -.10000E+01
-.76927E+00  0.12150E-02  -.10000E+01
-.10133E+01  0.42725E+00  -.10000E+01
-.56144E+00  0.43140E+00  -.10000E+01
-.10844E+01  0.85033E-01  -.10000E+01
-.79048E+00  0.43267E+00  -.10000E+01
-.82293E+00  0.25822E+00  -.10000E+01
-.10489E+01  0.25614E+00  -.10000E+01
0.47819E+01  -.20739E+00  -.10000E+01
0.43105E+01  -.26053E+00  -.10000E+01
0.43585E+01  0.25499E+00  -.10000E+01
0.45394E+01  -.23426E+00  -.10000E+01
0.43345E+01  -.27710E-02  -.10000E+01
0.45702E+01  0.23799E-01  -.10000E+01
0.38974E+01  0.30727E+00  -.10000E+01
0.43585E+01  0.25499E+00  -.10000E+01
0.43105E+01  -.26053E+00  -.10000E+01
0.41242E+01  0.28197E+00  -.10000E+01
0.43345E+01  -.27710E-02  -.10000E+01
0.41039E+01  0.23370E-01  -.10000E+01
-.49883E+00  -.43093E+00  -.10000E+01
-.97710E+00  -.42897E+00  -.10000E+01
-.56144E+00  0.43140E+00  -.10000E+01
-.74052E+00  -.43267E+00  -.10000E+01
-.76927E+00  0.12150E-02  -.10000E+01
-.53013E+00  0.23800E-03  -.10000E+01
-.94786E-01  0.42898E+00  -.10000E+01
0.38633E+00  0.42827E+00  -.10000E+01
0.16330E-02  -.42874E+00  -.10000E+01
0.14623E+00  0.42849E+00  -.10000E+01
0.19398E+00  -.23600E-03  -.10000E+01
-.46577E-01  0.12000E-03  -.10000E+01
0.29323E+01  0.38534E+00  -.10000E+01
0.34220E+01  0.35275E+00  -.10000E+01
0.33039E+01  -.36186E+00  -.10000E+01
0.31791E+01  0.37059E+00  -.10000E+01
0.33629E+01  -.45560E-02  -.10000E+01
0.31181E+01  0.11739E-01  -.10000E+01
0.34220E+01  0.35275E+00  -.10000E+01
0.38974E+01  0.30727E+00  -.10000E+01
0.38181E+01  -.31571E+00  -.10000E+01
0.36605E+01  0.33160E+00  -.10000E+01
0.38578E+01  -.42190E-02  -.10000E+01
0.36201E+01  0.18522E-01  -.10000E+01
0.43105E+01  -.26053E+00  -.10000E+01
0.38181E+01  -.31571E+00  -.10000E+01
0.38974E+01  0.30727E+00  -.10000E+01
0.40606E+01  -.28918E+00  -.10000E+01
0.38578E+01  -.42190E-02  -.10000E+01
0.41039E+01  0.23370E-01  -.10000E+01
0.16330E-02  -.42874E+00  -.10000E+01
-.49883E+00  -.43093E+00  -.10000E+01
-.94786E-01  0.42898E+00  -.10000E+01
-.24824E+00  -.42951E+00  -.10000E+01
-.29681E+00  -.97400E-03  -.10000E+01
-.46577E-01  0.12000E-03  -.10000E+01
-.94786E-01  0.42898E+00  -.10000E+01
-.49883E+00  -.43093E+00  -.10000E+01
-.56144E+00  0.43140E+00  -.10000E+01
-.29681E+00  -.97400E-03  -.10000E+01
-.53013E+00  0.23800E-03  -.10000E+01
-.32783E+00  0.42989E+00  -.10000E+01
0.38633E+00  0.42827E+00  -.10000E+01
0.88161E+00  0.42778E+00  -.10000E+01
0.52412E+00  -.42818E+00  -.10000E+01
0.63463E+00  0.42810E+00  -.10000E+01
0.70286E+00  -.20300E-03  -.10000E+01
0.45522E+00  0.44000E-04  -.10000E+01
0.88161E+00  0.42778E+00  -.10000E+01
0.13907E+01  0.42562E+00  -.10000E+01
0.10684E+01  -.42729E+00  -.10000E+01
0.11371E+01  0.42703E+00  -.10000E+01
0.12295E+01  -.83500E-03  -.10000E+01
0.97498E+00  0.24500E-03  -.10000E+01
0.24291E+01  0.40675E+00  -.10000E+01
0.29323E+01  0.38534E+00  -.10000E+01
0.27678E+01  -.39352E+00  -.10000E+01
0.26824E+01  0.39729E+00  -.10000E+01
0.28501E+01  -.40890E-02  -.10000E+01
0.25985E+01  0.66170E-02  -.10000E+01
0.38181E+01  -.31571E+00  -.10000E+01
0.33039E+01  -.36186E+00  -.10000E+01
0.34220E+01  0.35275E+00  -.10000E+01
0.35628E+01  -.34072E+00  -.10000E+01
0.33629E+01  -.45560E-02  -.10000E+01
0.36201E+01  0.18522E-01  -.10000E+01
0.19131E+01  0.41940E+00  -.10000E+01
0.24291E+01  0.40675E+00  -.10000E+01
0.22108E+01  -.41307E+00  -.10000E+01
0.21726E+01  0.41403E+00  -.10000E+01
0.23200E+01  -.31620E-02  -.10000E+01
0.20620E+01  0.31650E-02  -.10000E+01
0.52412E+00  -.42818E+00  -.10000E+01
0.16330E-02  -.42874E+00  -.10000E+01
0.38633E+00  0.42827E+00  -.10000E+01
0.26346E+00  -.42836E+00  -.10000E+01
0.19398E+00  -.23600E-03  -.10000E+01
0.45522E+00  0.44000E-04  -.10000E+01
0.13907E+01  0.42562E+00  -.10000E+01
0.19131E+01  0.41940E+00  -.10000E+01
0.16339E+01  -.42338E+00  -.10000E+01
0.16531E+01  0.42316E+00  -.10000E+01
0.17735E+01  -.19860E-02  -.10000E+01
0.15123E+01  0.11190E-02  -.10000E+01
0.33039E+01  -.36186E+00  -.10000E+01
0.27678E+01  -.39352E+00  -.10000E+01
0.29323E+01  0.38534E+00  -.10000E+01
0.30380E+01  -.37941E+00  -.10000E+01
0.28501E+01  -.40890E-02  -.10000E+01
0.31181E+01  0.11739E-01  -.10000E+01
0.27678E+01  -.39352E+00  -.10000E+01
0.22108E+01  -.41307E+00  -.10000E+01
0.24291E+01  0.40675E+00  -.10000E+01
0.24912E+01  -.40465E+00  -.10000E+01
0.23200E+01  -.31620E-02  -.10000E+01
0.25985E+01  0.66170E-02  -.10000E+01
0.10684E+01  -.42729E+00  -.10000E+01
0.52412E+00  -.42818E+00  -.10000E+01
0.88161E+00  0.42778E+00  -.10000E+01
0.79711E+00  -.42792E+00  -.10000E+01
0.70286E+00  -.20300E-03  -.10000E+01
0.97498E+00  0.24500E-03  -.10000E+01
0.22108E+01  -.41307E+00  -.10000E+01
0.16339E+01  -.42338E+00  -.10000E+01
0.19131E+01  0.41940E+00  -.10000E+01
0.19240E+01  -.41921E+00  -.10000E+01
0.17735E+01  -.19860E-02  -.10000E+01
0.20620E+01  0.31650E-02  -.10000E+01
0.16339E+01  -.42338E+00  -.10000E+01
0.10684E+01  -.42729E+00  -.10000E+01
0.13907E+01  0.42562E+00  -.10000E+01
0.13524E+01  -.42588E+00  -.10000E+01
0.12295E+01  -.83500E-03  -.10000E+01
0.15123E+01  0.11190E-02  -.10000E+01
-.30000E+01  0.00000E+00  0.00000E+00
-.29999E+01  0.15341E+00  0.00000E+00
-.28761E+01  0.00000E+00  -.13766E+00
-.30013E+01  0.77120E-01  0.00000E+00
-.29398E+01  0.75170E-01  -.68333E-01
-.29381E+01  0.00000E+00  -.68830E-01
-.29999E+01  0.15341E+00  0.00000E+00
-.29871E+01  0.31280E+00  0.00000E+00
-.28915E+01  0.15332E+00  -.11987E+00
-.29952E+01  0.23397E+00  0.00000E+00
-.29411E+01  0.23231E+00  -.59511E-01
-.29457E+01  0.15356E+00  -.59972E-01
-.29871E+01  0.31280E+00  0.00000E+00
-.29567E+01  0.47662E+00  0.00000E+00
-.28694E+01  0.30344E+00  -.12836E+00
-.29741E+01  0.39623E+00  0.00000E+00
-.29151E+01  0.38979E+00  -.63693E-01
-.29282E+01  0.30852E+00  -.64221E-01
0.79827E+01  0.15248E+00  0.00000E+00
0.80000E+01  0.00000E+00  0.00000E+00
0.78387E+01  0.00000E+00  -.67226E-01
0.79953E+01  0.82548E-01  0.00000E+00
0.79193E+01  0.00000E+00  -.33613E-01
0.79147E+01  0.81375E-01  -.33550E-01
0.79827E+01  0.15248E+00  0.00000E+00
0.78387E+01  0.00000E+00  -.67226E-01
0.79079E+01  0.29320E+00  0.00000E+00
0.79147E+01  0.81375E-01  -.33550E-01
0.78975E+01  0.16424E+00  -.33653E-01
0.79531E+01  0.22740E+00  0.00000E+00
0.72689E+01  0.58478E+00  0.00000E+00
0.74515E+01  0.53586E+00  0.00000E+00
0.73328E+01  0.48714E+00  -.80656E-01
0.73611E+01  0.56119E+00  0.00000E+00
0.73924E+01  0.51151E+00  -.40315E-01
0.73030E+01  0.53712E+00  -.40309E-01
0.74515E+01  0.53586E+00  0.00000E+00
0.76234E+01  0.47710E+00  0.00000E+00
0.74731E+01  0.42325E+00  -.90659E-01
0.75396E+01  0.50799E+00  0.00000E+00
0.75487E+01  0.45023E+00  -.45299E-01
0.74669E+01  0.48172E+00  -.45276E-01
-.28915E+01  0.15332E+00  -.11987E+00
-.29871E+01  0.31280E+00  0.00000E+00
-.28694E+01  0.30344E+00  -.12836E+00
-.29411E+01  0.23231E+00  -.59511E-01
-.29282E+01  0.30852E+00  -.64221E-01
-.28822E+01  0.22932E+00  -.12424E+00
-.28915E+01  0.15332E+00  -.11987E+00
-.28694E+01  0.30344E+00  -.12836E+00
-.27296E+01  0.00000E+00  -.30044E+00
-.28822E+01  0.22932E+00  -.12424E+00
-.28073E+01  0.14859E+00  -.21311E+00
-.28128E+01  0.74176E-01  -.20939E+00
-.29999E+01  0.15341E+00  0.00000E+00
-.28915E+01  0.15332E+00  -.11987E+00
-.28761E+01  0.00000E+00  -.13766E+00
-.29457E+01  0.15356E+00  -.59972E-01
-.28854E+01  0.76759E-01  -.12877E+00
-.29398E+01  0.75170E-01  -.68333E-01
-.28761E+01  0.00000E+00  -.13766E+00
-.28915E+01  0.15332E+00  -.11987E+00
[...]
POINT_DATA    19824
SCALARS scalars float 1
LOOKUP_TABLE default
-.10000E+01
-.10000E+01
-.10000E+01
-.10000E+01
-.10000E+01
-.10000E+01
-.10000E+01
-.10000E+01
-.10000E+01
-.10000E+01
-.10000E+01
-.10000E+01
-.10000E+01
-.10000E+01
-.10000E+01
-.10000E+01
-.10000E+01
-.10000E+01
-.10000E+01
-.10000E+01
-.10000E+01
-.10000E+01
-.10000E+01
-.10000E+01
-.10000E+01
-.10000E+01
-.10000E+01
-.10000E+01
-.10000E+01
-.10000E+01
-.10000E+01
-.10000E+01
-.10000E+01
-.10000E+01
-.10000E+01
-.10000E+01
-.10000E+01
-.10000E+01
-.10000E+01
-.10000E+01
-.10000E+01
-.10000E+01
-.10000E+01
-.10000E+01
-.10000E+01
-.10000E+01
-.10000E+01
-.10000E+01
-.10000E+01
-.10000E+01
-.10000E+01
-.10000E+01
-.10000E+01
-.10000E+01
-.10000E+01
-.10000E+01
-.10000E+01
-.10000E+01
-.10000E+01
-.10000E+01
-.10000E+01
-.10000E+01
-.10000E+01
-.10000E+01
-.10000E+01
-.10000E+01
-.10000E+01
-.10000E+01
-.10000E+01
-.10000E+01
-.10000E+01
-.10000E+01
-.10000E+01
-.10000E+01
-.10000E+01
-.10000E+01
-.10000E+01
-.10000E+01
-.10000E+01
-.10000E+01
-.10000E+01
-.10000E+01
-.10000E+01
-.10000E+01
-.10000E+01
-.10000E+01
-.10000E+01
-.10000E+01
-.10000E+01
-.10000E+01
-.10000E+01
-.10000E+01
-.10000E+01
-.10000E+01
-.10000E+01
-.10000E+01
-.10000E+01
-.10000E+01
-.10000E+01
-.10000E+01
-.10000E+01
-.10000E+01
-.10000E+01
-.10000E+01
-.10000E+01
-.10000E+01
-.10000E+01
-.10000E+01
-.10000E+01
-.10000E+01
-.10000E+01
-.10000E+01
-.10000E+01
-.10000E+01
-.10000E+01
-.10000E+01
-.10000E+01
-.10000E+01
-.10000E+01
-.10000E+01
-.10000E+01
-.10000E+01
-.10000E+01
-.10000E+01
-.10000E+01
-.10000E+01
-.10000E+01
-.10000E+01
-.10000E+01
-.10000E+01
-.10000E+01
-.10000E+01
-.10000E+01
-.10000E+01
-.10000E+01
-.10000E+01
-.10000E+01
-.10000E+01
-.10000E+01
-.10000E+01
-.10000E+01
-.10000E+01
-.10000E+01
-.10000E+01
-.10000E+01
-.10000E+01
-.10000E+01
-.10000E+01
-.10000E+01
-.10000E+01
-.10000E+01
-.10000E+01
-.10000E+01
-.10000E+01
-.10000E+01
-.10000E+01
-.10000E+01
-.10000E+01
-.10000E+01
-.10000E+01
-.10000E+01
-.10000E+01
-.10000E+01
-.10000E+01
-.10000E+01
-.10000E+01
-.10000E+01
-.10000E+01
-.10000E+01
-.10000E+01
-.10000E+01
-.10000E+01
-.10000E+01
-.10000E+01
-.10000E+01
-.10000E+01
-.10000E+01
-.10000E+01
-.10000E+01
-.10000E+01
-.10000E+01
-.10000E+01
-.10000E+01
-.10000E+01
-.10000E+01
-.10000E+01
-.10000E+01
-.10000E+01
-.10000E+01
-.10000E+01
-.10000E+01
-.10000E+01
-.10000E+01
-.10000E+01
-.10000E+01
-.10000E+01
-.10000E+01
-.10000E+01
0.00000E+00
0.00000E+00
-.13766E+00
0.00000E+00
-.68333E-01
-.68830E-01
0.00000E+00
0.00000E+00
-.11987E+00
0.00000E+00
-.59511E-01
-.59972E-01
0.00000E+00
0.00000E+00
-.12836E+00
0.00000E+00
-.63693E-01
-.64221E-01
0.00000E+00
0.00000E+00
-.67226E-01
0.00000E+00
-.33613E-01
-.33550E-01
0.00000E+00
-.67226E-01
0.00000E+00
-.33550E-01
-.33653E-01
0.00000E+00
0.00000E+00
0.00000E+00
-.80656E-01
0.00000E+00
-.40315E-01
-.40309E-01
0.00000E+00
0.00000E+00
-.90659E-01
0.00000E+00
-.45299E-01
-.45276E-01
-.11987E+00
0.00000E+00
-.12836E+00
-.59511E-01
-.64221E-01
-.12424E+00
-.11987E+00
-.12836E+00
-.30044E+00
-.12424E+00
-.21311E+00
-.20939E+00
0.00000E+00
-.11987E+00
-.13766E+00
-.59972E-01
-.12877E+00
-.68333E-01
-.13766E+00
-.11987E+00
-.30044E+00
-.12877E+00
-.20939E+00
-.21905E+00
0.00000E+00
0.00000E+00
-.12045E+00
0.00000E+00
-.59773E-01
-.60253E-01
0.00000E+00
0.00000E+00
-.92634E-01
0.00000E+00
-.46299E-01
-.46271E-01
0.00000E+00
0.00000E+00
-.11092E+00
0.00000E+00
-.55385E-01
-.55336E-01
-.12836E+00
0.00000E+00
-.12045E+00
-.63693E-01
-.60253E-01
-.12446E+00
-.12836E+00
-.12045E+00
-.32500E+00
-.12446E+00
-.22185E+00
-.22672E+00
0.00000E+00
0.00000E+00
-.85729E-01
0.00000E+00
-.42847E-01
-.42843E-01
0.00000E+00
0.00000E+00
-.10235E+00
0.00000E+00
-.51104E-01
-.51059E-01
0.00000E+00
0.00000E+00
-.15235E+00
0.00000E+00
-.75608E-01
-.76293E-01
-.80656E-01
0.00000E+00
-.90659E-01
-.40315E-01
-.45276E-01
-.85713E-01
-.80656E-01
-.90659E-01
-.22057E+00
-.85713E-01
-.15546E+00
-.15036E+00
0.00000E+00
-.80656E-01
-.92634E-01
-.40309E-01
-.86741E-01
-.46299E-01
-.92634E-01
-.80656E-01
-.22057E+00
-.86741E-01
-.15036E+00
-.15649E+00
-.90659E-01
0.00000E+00
-.11092E+00
-.45299E-01
-.55336E-01
-.10084E+00
-.90659E-01
-.11092E+00
-.22057E+00
-.10084E+00
-.16584E+00
-.15546E+00
0.00000E+00
0.00000E+00
-.10658E+00
0.00000E+00
-.53260E-01
-.53238E-01
0.00000E+00
-.92634E-01
-.85729E-01
-.46271E-01
-.89246E-01
-.42847E-01
-.85729E-01
-.92634E-01
-.22977E+00
-.89246E-01
-.16104E+00
-.15752E+00
-.12045E+00
0.00000E+00
-.15235E+00
-.59773E-01
-.76293E-01
-.13669E+00
-.12045E+00
-.15235E+00
-.32500E+00
-.13669E+00
-.23732E+00
-.22185E+00
0.00000E+00
0.00000E+00
-.13924E+00
0.00000E+00
-.69288E-01
-.69925E-01
-.11092E+00
0.00000E+00
-.10235E+00
-.55385E-01
-.51059E-01
-.10674E+00
-.11092E+00
-.10235E+00
-.25301E+00
-.10674E+00
-.17734E+00
-.18164E+00
0.00000E+00
0.00000E+00
-.13696E+00
0.00000E+00
-.67970E-01
-.68578E-01
0.00000E+00
0.00000E+00
-.15948E+00
0.00000E+00
-.79230E-01
-.79964E-01
0.00000E+00
-.85729E-01
-.10658E+00
-.42843E-01
-.96276E-01
-.53260E-01
-.10658E+00
-.85729E-01
-.22977E+00
-.96276E-01
-.15752E+00
-.16817E+00
0.00000E+00
0.00000E+00
-.13550E+00
0.00000E+00
-.67379E-01
-.67947E-01
0.00000E+00
0.00000E+00
-.11460E+00
0.00000E+00
-.57264E-01
-.57248E-01
-.67226E-01
-.15068E+00
0.00000E+00
-.10895E+00
-.75018E-01
-.33653E-01
-.10235E+00
0.00000E+00
-.15068E+00
-.51104E-01
-.75018E-01
-.12653E+00
-.10235E+00
-.15068E+00
-.25301E+00
-.12653E+00
-.20185E+00
-.17734E+00
-.15235E+00
0.00000E+00
-.13696E+00
-.75608E-01
-.68578E-01
-.14471E+00
-.15235E+00
-.13696E+00
-.37776E+00
-.14471E+00
-.25613E+00
-.26498E+00
0.00000E+00
0.00000E+00
-.16290E+00
0.00000E+00
-.81050E-01
-.81781E-01
0.00000E+00
0.00000E+00
-.12303E+00
0.00000E+00
-.61472E-01
-.61465E-01
0.00000E+00
-.10658E+00
-.11460E+00
-.53238E-01
-.11071E+00
-.57264E-01
-.11460E+00
-.10658E+00
-.27486E+00
-.11071E+00
-.19057E+00
-.19449E+00
-.13924E+00
0.00000E+00
-.13550E+00
-.69288E-01
-.67947E-01
-.13747E+00
-.13924E+00
-.13550E+00
-.37750E+00
-.13747E+00
-.25570E+00
-.25854E+00
0.00000E+00
-.13924E+00
-.15948E+00
-.69925E-01
-.14944E+00
-.79230E-01
-.15948E+00
-.13924E+00
-.37750E+00
-.14944E+00
-.25854E+00
-.27017E+00
0.00000E+00
0.00000E+00
-.14647E+00
0.00000E+00
-.72864E-01
-.73490E-01
-.13696E+00
0.00000E+00
-.15948E+00
-.67970E-01
-.79964E-01
-.14855E+00
-.13696E+00
-.15948E+00
-.37776E+00
-.14855E+00
-.26663E+00
-.25613E+00
0.00000E+00
0.00000E+00
-.17137E+00
0.00000E+00
-.85329E-01
-.86105E-01
0.00000E+00
0.00000E+00
-.13167E+00
0.00000E+00
-.65794E-01
-.65800E-01
0.00000E+00
-.11460E+00
-.12303E+00
-.57248E-01
-.11894E+00
-.61472E-01
-.12303E+00
-.11460E+00
-.27486E+00
-.11894E+00
-.19449E+00
-.19887E+00
0.00000E+00
0.00000E+00
-.15065E+00
0.00000E+00
-.75012E-01
-.75625E-01
-.13550E+00
0.00000E+00
-.16290E+00
-.67379E-01
-.81781E-01
-.14954E+00
-.13550E+00
-.16290E+00
-.37750E+00
-.14954E+00
-.26873E+00
-.25570E+00
-.12836E+00
-.32500E+00
-.30044E+00
-.22672E+00
-.31326E+00
-.21311E+00
0.00000E+00
0.00000E+00
-.16764E+00
0.00000E+00
-.83552E-01
-.84257E-01
-.48951E+00
-.30044E+00
-.32500E+00
-.39498E+00
-.31326E+00
-.40584E+00
-.48951E+00
-.32500E+00
-.70970E+00
-.40584E+00
-.51344E+00
-.59961E+00
0.00000E+00
0.00000E+00
-.16880E+00
0.00000E+00
-.84161E-01
-.84856E-01
-.16290E+00
0.00000E+00
-.14647E+00
-.81050E-01
-.73490E-01
-.15477E+00
-.16290E+00
-.14647E+00
-.39971E+00
-.15477E+00
-.27229E+00
-.28162E+00
0.00000E+00
0.00000E+00
-.14028E+00
0.00000E+00
-.70101E-01
-.70124E-01
0.00000E+00
0.00000E+00
-.17187E+00
0.00000E+00
-.85716E-01
-.86415E-01
0.00000E+00
-.12303E+00
-.13167E+00
-.61465E-01
-.12750E+00
-.65794E-01
-.13167E+00
-.12303E+00
-.26993E+00
-.12750E+00
-.19640E+00
-.20067E+00
-.22977E+00
-.92634E-01
-.22057E+00
-.16104E+00
-.15649E+00
-.22545E+00
0.00000E+00
0.00000E+00
-.15393E+00
0.00000E+00
-.76755E-01
-.77321E-01
0.00000E+00
0.00000E+00
-.12878E+00
0.00000E+00
-.64357E-01
-.64440E-01
-.14647E+00
0.00000E+00
-.17137E+00
-.72864E-01
-.86105E-01
-.15930E+00
-.14647E+00
-.17137E+00
-.39971E+00
-.15930E+00
-.28399E+00
-.27229E+00
0.00000E+00
0.00000E+00
-.17846E+00
0.00000E+00
-.89059E-01
-.89760E-01
-.17137E+00
0.00000E+00
-.15065E+00
-.85329E-01
-.75625E-01
-.16109E+00
-.17137E+00
-.15065E+00
-.41467E+00
-.16109E+00
-.28212E+00
-.29361E+00
0.00000E+00
-.13167E+00
-.14028E+00
-.65800E-01
-.13615E+00
-.70101E-01
-.14028E+00
-.13167E+00
-.26993E+00
-.13615E+00
-.20067E+00
-.20526E+00
-.15065E+00
0.00000E+00
-.16764E+00
-.75012E-01
-.84257E-01
-.15948E+00
-.15065E+00
-.16764E+00
-.41467E+00
-.15948E+00
-.28979E+00
-.28212E+00
-.16764E+00
0.00000E+00
-.16880E+00
-.83552E-01
-.84856E-01
-.16844E+00
-.16764E+00
-.16880E+00
-.33746E+00
-.16844E+00
-.25296E+00
-.25321E+00
0.00000E+00
0.00000E+00
-.15570E+00
0.00000E+00
-.77818E-01
-.77891E-01
0.00000E+00
0.00000E+00
-.18193E+00
0.00000E+00
-.90817E-01
-.91517E-01
-.70970E+00
-.32500E+00
-.37776E+00
-.51344E+00
-.35189E+00
-.53753E+00
-.16880E+00
0.00000E+00
-.17187E+00
-.84161E-01
-.86415E-01
-.17057E+00
-.16880E+00
-.17187E+00
-.33746E+00
-.17057E+00
-.25411E+00
-.25296E+00
0.00000E+00
0.00000E+00
-.14141E+00
0.00000E+00
-.70678E-01
-.70821E-01
0.00000E+00
-.14028E+00
-.12878E+00
-.70124E-01
-.13469E+00
-.64357E-01
-.12878E+00
-.14028E+00
-.34707E+00
-.13469E+00
-.24347E+00
-.23769E+00
0.00000E+00
0.00000E+00
-.18555E+00
0.00000E+00
-.92651E-01
-.93346E-01
-.15235E+00
-.37776E+00
-.32500E+00
-.26498E+00
-.35189E+00
-.23732E+00
-.17187E+00
0.00000E+00
-.15393E+00
-.85716E-01
-.77321E-01
-.16302E+00
-.17187E+00
-.15393E+00
-.41751E+00
-.16302E+00
-.28549E+00
-.29542E+00
0.00000E+00
0.00000E+00
-.16609E+00
0.00000E+00
-.83029E-01
-.83169E-01
-.27486E+00
-.10658E+00
-.22977E+00
-.19057E+00
-.16817E+00
-.25285E+00
0.00000E+00
0.00000E+00
-.18937E+00
0.00000E+00
-.94641E-01
-.95264E-01
0.00000E+00
0.00000E+00
-.15043E+00
0.00000E+00
-.75201E-01
-.75415E-01
-.15393E+00
0.00000E+00
-.17846E+00
-.76755E-01
-.89760E-01
-.16660E+00
-.15393E+00
-.17846E+00
-.41751E+00
-.16660E+00
-.29716E+00
-.28549E+00
-.22977E+00
-.22057E+00
-.52317E+00
-.22545E+00
-.37033E+00
-.37474E+00
-.25301E+00
-.37660E+00
-.22057E+00
-.31481E+00
-.29812E+00
-.23718E+00
0.00000E+00
-.12878E+00
-.15570E+00
-.64440E-01
-.14249E+00
-.77818E-01
-.15570E+00
-.12878E+00
-.34707E+00
-.14249E+00
-.23769E+00
-.25167E+00
0.00000E+00
0.00000E+00
-.19340E+00
0.00000E+00
-.96670E-01
-.97352E-01
0.00000E+00
0.00000E+00
-.17527E+00
0.00000E+00
-.87628E-01
-.87852E-01
0.00000E+00
0.00000E+00
-.15888E+00
0.00000E+00
-.79437E-01
-.80195E-01
-.17846E+00
0.00000E+00
-.18193E+00
-.89059E-01
-.91517E-01
-.18047E+00
-.17846E+00
-.18193E+00
-.40185E+00
-.18047E+00
-.29185E+00
-.29130E+00
0.00000E+00
0.00000E+00
-.17387E+00
0.00000E+00
-.86885E-01
-.87414E-01
0.00000E+00
0.00000E+00
-.18519E+00
0.00000E+00
-.92839E-01
-.93090E-01
0.00000E+00
-.15570E+00
-.14141E+00
-.77891E-01
-.14874E+00
-.70678E-01
-.14141E+00
-.15570E+00
-.38340E+00
-.14874E+00
-.26938E+00
-.26227E+00
0.00000E+00
0.00000E+00
-.16809E+00
0.00000E+00
-.84189E-01
-.84540E-01
-.18193E+00
0.00000E+00
-.18555E+00
-.90817E-01
-.93346E-01
-.18403E+00
-.18193E+00
-.18555E+00
-.40185E+00
-.18403E+00
-.29318E+00
-.29185E+00
-.11092E+00
-.25301E+00
-.22057E+00
-.18164E+00
-.23718E+00
-.16584E+00
0.00000E+00
-.14141E+00
-.16609E+00
-.70821E-01
-.15403E+00
-.83029E-01
-.16609E+00
-.14141E+00
-.38340E+00
-.15403E+00
-.26227E+00
-.27524E+00
0.00000E+00
0.00000E+00
-.20223E+00
0.00000E+00
-.10108E+00
-.10174E+00
0.00000E+00
0.00000E+00
-.19573E+00
0.00000E+00
-.97926E-01
-.98349E-01
-.18555E+00
0.00000E+00
-.18937E+00
-.92651E-01
-.95264E-01
-.18775E+00
-.18555E+00
-.18937E+00
-.35664E+00
-.18775E+00
-.27296E+00
-.27181E+00
-.16290E+00
-.39971E+00
-.37750E+00
-.28162E+00
-.38949E+00
-.26873E+00
0.00000E+00
-.16609E+00
-.15043E+00
-.83169E-01
-.15848E+00
-.75201E-01
-.15043E+00
-.16609E+00
-.40772E+00
-.15848E+00
-.28680E+00
-.27910E+00
0.00000E+00
0.00000E+00
-.20155E+00
0.00000E+00
-.10078E+00
-.10130E+00
-.22057E+00
-.37660E+00
-.52317E+00
-.29812E+00
-.44989E+00
-.37033E+00
0.00000E+00
0.00000E+00
-.20713E+00
0.00000E+00
-.10354E+00
-.10416E+00
-.26993E+00
-.12303E+00
-.27486E+00
-.19640E+00
-.19887E+00
-.27284E+00
-.18937E+00
0.00000E+00
-.19340E+00
-.94641E-01
-.97352E-01
-.19171E+00
-.18937E+00
-.19340E+00
-.35664E+00
-.19171E+00
-.27485E+00
-.27296E+00
0.00000E+00
-.15043E+00
-.17527E+00
-.75415E-01
-.16315E+00
-.87628E-01
-.17527E+00
-.15043E+00
-.40772E+00
-.16315E+00
-.27910E+00
-.29229E+00
0.00000E+00
-.17527E+00
-.15888E+00
-.87852E-01
-.16733E+00
-.79437E-01
-.15888E+00
-.17527E+00
-.42970E+00
-.16733E+00
-.30244E+00
-.29464E+00
-.19340E+00
0.00000E+00
-.17387E+00
-.96670E-01
-.87414E-01
-.18384E+00
-.19340E+00
-.17387E+00
-.46923E+00
-.18384E+00
-.32158E+00
-.33218E+00
-.27486E+00
-.22977E+00
-.47052E+00
-.25285E+00
-.34943E+00
-.37212E+00
0.00000E+00
-.15888E+00
-.18519E+00
-.80195E-01
-.17253E+00
-.92839E-01
-.18519E+00
-.15888E+00
-.42970E+00
-.17253E+00
-.29464E+00
-.30861E+00
-.17137E+00
-.41467E+00
-.39971E+00
-.29361E+00
-.40815E+00
-.28399E+00
0.00000E+00
-.18519E+00
-.16809E+00
-.93090E-01
-.17692E+00
-.84189E-01
-.16809E+00
-.18519E+00
-.45311E+00
-.17692E+00
-.31913E+00
-.31103E+00
-.10000E+01
-.70970E+00
-.67515E+00
-.85485E+00
-.69237E+00
-.83073E+00
-.17387E+00
0.00000E+00
-.20223E+00
-.86885E-01
-.10174E+00
-.18857E+00
-.17387E+00
-.20223E+00
-.46923E+00
-.18857E+00
-.33545E+00
-.32158E+00
-.16764E+00
-.33746E+00
-.41467E+00
-.25321E+00
-.37610E+00
-.28979E+00
0.00000E+00
-.16809E+00
-.19573E+00
-.84540E-01
-.18225E+00
-.97926E-01
-.19573E+00
-.16809E+00
-.45311E+00
-.18225E+00
-.31103E+00
-.32604E+00
-.20223E+00
0.00000E+00
-.20713E+00
-.10108E+00
-.10416E+00
-.20505E+00
-.20223E+00
-.20713E+00
-.49110E+00
-.20505E+00
-.34906E+00
-.34751E+00
0.00000E+00
-.19573E+00
-.20155E+00
-.98349E-01
-.19897E+00
-.10078E+00
-.20155E+00
-.19573E+00
-.47902E+00
-.19897E+00
-.33742E+00
-.34101E+00
-.52317E+00
-.68097E+00
-.47052E+00
-.60207E+00
-.57461E+00
-.49695E+00
-.52317E+00
-.47052E+00
-.22977E+00
-.49695E+00
-.34943E+00
-.37474E+00
-.47052E+00
-.68097E+00
-.61461E+00
-.57461E+00
-.64798E+00
-.54319E+00
-.68097E+00
-.83992E+00
-.61461E+00
-.76044E+00
-.72546E+00
-.64798E+00
0.00000E+00
-.20155E+00
-.20713E+00
-.10130E+00
-.20468E+00
-.10354E+00
-.20713E+00
-.20155E+00
-.47902E+00
-.20468E+00
-.34101E+00
-.34520E+00
-.83992E+00
-.10000E+01
-.61461E+00
-.91996E+00
-.80334E+00
-.72546E+00
-.34707E+00
-.14028E+00
-.26993E+00
-.24347E+00
-.20526E+00
-.30903E+00
-.10000E+01
-.10000E+01
-.76155E+00
-.10000E+01
-.88020E+00
-.87903E+00
-.17187E+00
-.41751E+00
-.33746E+00
-.29542E+00
-.37861E+00
-.25411E+00
-.15948E+00
-.37750E+00
-.37776E+00
-.27017E+00
-.37929E+00
-.26663E+00
-.37750E+00
-.39971E+00
-.10000E+01
-.38949E+00
-.68831E+00
-.68367E+00
-.26993E+00
-.27486E+00
-.61461E+00
-.27284E+00
-.44339E+00
-.44049E+00
-.17846E+00
-.40185E+00
-.41751E+00
-.29130E+00
-.41073E+00
-.29716E+00
-.67515E+00
-.70970E+00
-.37776E+00
-.69237E+00
-.53753E+00
-.52596E+00
-.67515E+00
-.37776E+00
-.37750E+00
-.52596E+00
-.37929E+00
-.52129E+00
-.10000E+01
-.67515E+00
-.10000E+01
-.83073E+00
-.84300E+00
-.10000E+01
-.10000E+01
-.10000E+01
-.68251E+00
-.10000E+01
-.83888E+00
-.84295E+00
-.38340E+00
-.15570E+00
-.34707E+00
-.26938E+00
-.25167E+00
-.36603E+00
-.27486E+00
-.47052E+00
-.61461E+00
-.37212E+00
-.54319E+00
-.44339E+00
-.10000E+01
-.10000E+01
-.73459E+00
-.10000E+01
-.86686E+00
-.86573E+00
-.18555E+00
-.35664E+00
-.40185E+00
-.27181E+00
-.37978E+00
-.29318E+00
-.41467E+00
-.33746E+00
-.68251E+00
-.37610E+00
-.50906E+00
-.55122E+00
-.68251E+00
-.33746E+00
-.41751E+00
-.50906E+00
-.37861E+00
-.54798E+00
-.10000E+01
-.10000E+01
-.69137E+00
-.10000E+01
-.84400E+00
-.84741E+00
-.40772E+00
-.16609E+00
-.38340E+00
-.28680E+00
-.27524E+00
-.39644E+00
-.76155E+00
-.10000E+01
-.73459E+00
-.88020E+00
-.86573E+00
-.74840E+00
-.76155E+00
-.73459E+00
-.38340E+00
-.74840E+00
-.55822E+00
-.57092E+00
-.10000E+01
-.76155E+00
-.61461E+00
-.87903E+00
-.69063E+00
-.80765E+00
-.10000E+01
-.10000E+01
-.39971E+00
-.10000E+01
-.68831E+00
-.69837E+00
-.39971E+00
-.41467E+00
-.10000E+01
-.40815E+00
-.69910E+00
-.69837E+00
-.10000E+01
-.10000E+01
-.69279E+00
-.10000E+01
-.84549E+00
-.84828E+00
-.42970E+00
-.17527E+00
-.40772E+00
-.30244E+00
-.29229E+00
-.41964E+00
-.34707E+00
-.26993E+00
-.61461E+00
-.30903E+00
-.44049E+00
-.48030E+00
-.10000E+01
-.10000E+01
-.41467E+00
-.10000E+01
-.69910E+00
-.70794E+00
-.19340E+00
-.46923E+00
-.35664E+00
-.33218E+00
-.41455E+00
-.27485E+00
-.10000E+01
-.10000E+01
-.69162E+00
-.10000E+01
-.84511E+00
-.84753E+00
-.45311E+00
-.18519E+00
-.42970E+00
-.31913E+00
-.30861E+00
-.44240E+00
-.10000E+01
-.10000E+01
-.70482E+00
-.10000E+01
-.85214E+00
-.85118E+00
-.10000E+01
-.10000E+01
-.46923E+00
-.10000E+01
-.73315E+00
-.73602E+00
-.41751E+00
-.40185E+00
-.69279E+00
-.41073E+00
-.54666E+00
-.55781E+00
-.69279E+00
-.40185E+00
-.69162E+00
-.54666E+00
-.54852E+00
-.69281E+00
-.69279E+00
-.69162E+00
-.10000E+01
-.69281E+00
-.84511E+00
-.84828E+00
-.68251E+00
-.10000E+01
-.41467E+00
-.83888E+00
-.70794E+00
-.55122E+00
-.10000E+01
-.68251E+00
-.69137E+00
-.84295E+00
-.68763E+00
-.84400E+00
-.69137E+00
-.68251E+00
-.41751E+00
-.68763E+00
-.54798E+00
-.55413E+00
-.69137E+00
-.41751E+00
-.69279E+00
-.55413E+00
-.55781E+00
-.69256E+00
-.69137E+00
-.69279E+00
-.10000E+01
-.69256E+00
-.84549E+00
-.84741E+00
-.73459E+00
-.10000E+01
-.70482E+00
-.86686E+00
-.85118E+00
-.72019E+00
-.73459E+00
-.70482E+00
-.40772E+00
-.72019E+00
-.55593E+00
-.57070E+00
-.49110E+00
-.20713E+00
-.47902E+00
-.34906E+00
-.34520E+00
-.48631E+00
-.20223E+00
-.49110E+00
-.46923E+00
-.34751E+00
-.48145E+00
-.33545E+00
-.47902E+00
-.19573E+00
-.45311E+00
-.33742E+00
-.32604E+00
-.46710E+00
-.10000E+01
-.10000E+01
-.46923E+00
-.10000E+01
-.73602E+00
-.73948E+00
-.38340E+00
-.34707E+00
-.76155E+00
-.36603E+00
-.55302E+00
-.57092E+00
-.10000E+01
-.10000E+01
-.68990E+00
-.10000E+01
-.84484E+00
-.84430E+00
-.10000E+01
-.10000E+01
-.45311E+00
-.10000E+01
-.72654E+00
-.72676E+00
-.10000E+01
-.10000E+01
-.47902E+00
-.10000E+01
-.73981E+00
-.74100E+00
-.10000E+01
-.10000E+01
-.49110E+00
-.10000E+01
-.74636E+00
-.74865E+00
-.40185E+00
-.35664E+00
-.69162E+00
-.37978E+00
-.52362E+00
-.54852E+00
-.69162E+00
-.35664E+00
-.46923E+00
-.52362E+00
-.41455E+00
-.58003E+00
-.40772E+00
-.70482E+00
-.42970E+00
-.55593E+00
-.56769E+00
-.41964E+00
-.40772E+00
-.38340E+00
-.73459E+00
-.39644E+00
-.55822E+00
-.57070E+00
-.10000E+01
-.69162E+00
-.46923E+00
-.84753E+00
-.58003E+00
-.73315E+00
-.10000E+01
-.10000E+01
-.61461E+00
-.10000E+01
-.80765E+00
-.80334E+00
-.70482E+00
-.10000E+01
-.68990E+00
-.85214E+00
-.84430E+00
-.69801E+00
-.70482E+00
-.68990E+00
-.42970E+00
-.69801E+00
-.55969E+00
-.56769E+00
-.42970E+00
-.68990E+00
-.45311E+00
-.55969E+00
-.57259E+00
-.44240E+00
-.67515E+00
-.37750E+00
-.10000E+01
-.52129E+00
-.68367E+00
-.84300E+00
-.46923E+00
-.49110E+00
-.10000E+01
-.48145E+00
-.74636E+00
-.73948E+00
-.68990E+00
-.10000E+01
-.45311E+00
-.84484E+00
-.72676E+00
-.57259E+00
-.47902E+00
-.45311E+00
-.10000E+01
-.46710E+00
-.72654E+00
-.74100E+00
-.49110E+00
-.47902E+00
-.10000E+01
-.48631E+00
-.73981E+00
-.74865E+00
-.76155E+00
-.34707E+00
-.61461E+00
-.55302E+00
-.48030E+00
-.69063E+00
0.00000E+00
0.00000E+00
-.13766E+00
0.00000E+00
-.68830E-01
-.68333E-01
0.00000E+00
0.00000E+00
-.67226E-01
0.00000E+00
-.33550E-01
-.33613E-01
-.67226E-01
0.00000E+00
0.00000E+00
-.33550E-01
0.00000E+00
-.33653E-01
0.00000E+00
0.00000E+00
-.12837E+00
0.00000E+00
-.64225E-01
-.63697E-01
0.00000E+00
0.00000E+00
-.11988E+00
0.00000E+00
-.59977E-01
-.59517E-01
0.00000E+00
0.00000E+00
-.90683E-01
0.00000E+00
-.45288E-01
-.45311E-01
0.00000E+00
0.00000E+00
-.80870E-01
0.00000E+00
-.40404E-01
-.40441E-01
-.11988E+00
0.00000E+00
-.13766E+00
-.59977E-01
-.68333E-01
-.12878E+00
-.11988E+00
-.13766E+00
-.30044E+00
-.12878E+00
-.21905E+00
-.20939E+00
0.00000E+00
-.11988E+00
-.12837E+00
-.59517E-01
-.12425E+00
-.64225E-01
-.12837E+00
-.11988E+00
-.30044E+00
-.12425E+00
-.20939E+00