# vtk DataFile Version 3.0
vtk output
ASCII
DATASET UNSTRUCTURED_GRID
POINTS     2304 float
-.86603E+00  0.50000E+00  0.00000E+00
-.50000E+00  0.86603E+00  0.00000E+00
-.80575E+00  0.80575E+00  0.50946E+00
-.70711E+00  0.70711E+00  0.00000E+00
-.63700E+00  0.81557E+00  0.26172E+00
-.81557E+00  0.63700E+00  0.26172E+00
0.00000E+00  0.11340E+01  0.50000E+00
0.00000E+00  0.15000E+01  0.86603E+00
-.74948E+00  0.12962E+01  0.86445E+00
0.00000E+00  0.12929E+01  0.70711E+00
-.37845E+00  0.14119E+01  0.84280E+00
-.37431E+00  0.12137E+01  0.68358E+00
0.00000E+00  0.25000E+01  0.86603E+00
0.00000E+00  0.28660E+01  0.50000E+00
-.55346E+00  0.27807E+01  0.54985E+00
0.00000E+00  0.27071E+01  0.70711E+00
-.27773E+00  0.28336E+01  0.53135E+00
-.27925E+00  0.26644E+01  0.73411E+00
0.00000E+00  -.28660E+01  0.50000E+00
0.00000E+00  -.25000E+01  0.86603E+00
-.55346E+00  -.27807E+01  0.54985E+00
0.00000E+00  -.27071E+01  0.70711E+00
-.27925E+00  -.26644E+01  0.73411E+00
-.27773E+00  -.28336E+01  0.53135E+00
0.00000E+00  -.15000E+01  0.86603E+00
0.00000E+00  -.11340E+01  0.50000E+00
-.76714E+00  -.13074E+01  0.87501E+00
0.00000E+00  -.12929E+01  0.70711E+00
-.38267E+00  -.12178E+01  0.69037E+00
-.38734E+00  -.14175E+01  0.84767E+00
-.50000E+00  -.86603E+00  0.00000E+00
-.86603E+00  -.50000E+00  0.00000E+00
-.80575E+00  -.80575E+00  0.50946E+00
-.70711E+00  -.70711E+00  0.00000E+00
-.81557E+00  -.63700E+00  0.26172E+00
-.63700E+00  -.81557E+00  0.26172E+00
0.00000E+00  0.15000E+01  0.86603E+00
0.00000E+00  0.20000E+01  0.10000E+01
-.68489E+00  0.18671E+01  0.99994E+00
0.00000E+00  0.17502E+01  0.96829E+00
-.34245E+00  0.19336E+01  0.99934E+00
-.34098E+00  0.16764E+01  0.95724E+00
0.00000E+00  0.28660E+01  0.50000E+00
0.00000E+00  0.30000E+01  0.00000E+00
-.52094E+00  0.29544E+01  0.00000E+00
0.00000E+00  0.29683E+01  0.24984E+00
-.25732E+00  0.29889E+01  0.00000E+00
-.26433E+00  0.29533E+01  0.26174E+00
0.00000E+00  -.30000E+01  0.00000E+00
0.00000E+00  -.28660E+01  0.50000E+00
-.52094E+00  -.29544E+01  0.00000E+00
0.00000E+00  -.29683E+01  0.24984E+00
-.26433E+00  -.29533E+01  0.26174E+00
-.25732E+00  -.29889E+01  0.00000E+00
0.00000E+00  -.20000E+01  0.10000E+01
0.00000E+00  -.15000E+01  0.86603E+00
-.67699E+00  -.18700E+01  0.99994E+00
0.00000E+00  -.17502E+01  0.96829E+00
-.33704E+00  -.16778E+01  0.95742E+00
-.33850E+00  -.19350E+01  0.99937E+00
-.86603E+00  -.50000E+00  0.00000E+00
-.10000E+01  0.61232E-16  0.00000E+00
-.11641E+01  -.29284E+00  0.60055E+00
-.96829E+00  -.24984E+00  0.00000E+00
-.10411E+01  -.14087E+00  0.31396E+00
-.97838E+00  -.38208E+00  0.31328E+00
-.50000E+00  0.86603E+00  0.00000E+00
0.00000E+00  0.10000E+01  0.00000E+00
0.00000E+00  0.11340E+01  0.50000E+00
-.24984E+00  0.96829E+00  0.00000E+00
0.00000E+00  0.10317E+01  0.24984E+00
-.25022E+00  0.10009E+01  0.24976E+00
0.00000E+00  0.20000E+01  0.10000E+01
0.00000E+00  0.25000E+01  0.86603E+00
-.60779E+00  0.23816E+01  0.88900E+00
0.00000E+00  0.22498E+01  0.96829E+00
-.30443E+00  0.24451E+01  0.88584E+00
-.30486E+00  0.21977E+01  0.97577E+00
0.00000E+00  -.25000E+01  0.86603E+00
0.00000E+00  -.20000E+01  0.10000E+01
-.60779E+00  -.23816E+01  0.88900E+00
0.00000E+00  -.22498E+01  0.96829E+00
-.30486E+00  -.21977E+01  0.97577E+00
-.30443E+00  -.24451E+01  0.88584E+00
0.00000E+00  -.11340E+01  0.50000E+00
0.00000E+00  -.10000E+01  0.00000E+00
-.50000E+00  -.86603E+00  0.00000E+00
0.00000E+00  -.10317E+01  0.24984E+00
-.24984E+00  -.96829E+00  0.00000E+00
-.25022E+00  -.10009E+01  0.24976E+00
-.10000E+01  0.61232E-16  0.00000E+00
-.86603E+00  0.50000E+00  0.00000E+00
-.11641E+01  0.29284E+00  0.60055E+00
-.96829E+00  0.24984E+00  0.00000E+00
-.97838E+00  0.38208E+00  0.31328E+00
-.10411E+01  0.14087E+00  0.31396E+00
-.10261E+01  0.28191E+01  0.00000E+00
-.15000E+01  0.25981E+01  0.00000E+00
-.10417E+01  0.26733E+01  0.49474E+00
-.12660E+01  0.27198E+01  0.00000E+00
-.12882E+01  0.26718E+01  0.25808E+00
-.10453E+01  0.27765E+01  0.25594E+00
-.28191E+01  -.10261E+01  0.00000E+00
-.25981E+01  -.15000E+01  0.00000E+00
-.25341E+01  -.12193E+01  0.58337E+00
-.27198E+01  -.12660E+01  0.00000E+00
-.26082E+01  -.13820E+01  0.30706E+00
-.27218E+01  -.11417E+01  0.30753E+00
-.25981E+01  0.15000E+01  0.00000E+00
-.28191E+01  0.10261E+01  0.00000E+00
-.25341E+01  0.12193E+01  0.58337E+00
-.27198E+01  0.12660E+01  0.00000E+00
-.27218E+01  0.11417E+01  0.30753E+00
-.26082E+01  0.13820E+01  0.30706E+00
-.15000E+01  -.25981E+01  0.00000E+00
-.10261E+01  -.28191E+01  0.00000E+00
-.10417E+01  -.26733E+01  0.49474E+00
-.12660E+01  -.27198E+01  0.00000E+00
-.10453E+01  -.27765E+01  0.25594E+00
-.12882E+01  -.26718E+01  0.25808E+00
-.22981E+01  0.19284E+01  0.00000E+00
-.25981E+01  0.15000E+01  0.00000E+00
-.22025E+01  0.16494E+01  0.65958E+00
-.24580E+01  0.17199E+01  0.00000E+00
-.24542E+01  0.16101E+01  0.35420E+00
-.22980E+01  0.18268E+01  0.35278E+00
-.19284E+01  -.22981E+01  0.00000E+00
-.15000E+01  -.25981E+01  0.00000E+00
-.13575E+01  -.23486E+01  0.70147E+00
-.17199E+01  -.24580E+01  0.00000E+00
-.14633E+01  -.25331E+01  0.37901E+00
-.16880E+01  -.23872E+01  0.38314E+00
-.15000E+01  0.25981E+01  0.00000E+00
-.19284E+01  0.22981E+01  0.00000E+00
-.13706E+01  0.23410E+01  0.70147E+00
-.17199E+01  0.24580E+01  0.00000E+00
-.16944E+01  0.23827E+01  0.38288E+00
-.14700E+01  0.25292E+01  0.37902E+00
-.25981E+01  -.15000E+01  0.00000E+00
-.22981E+01  -.19284E+01  0.00000E+00
-.22122E+01  -.16685E+01  0.63699E+00
-.24580E+01  -.17199E+01  0.00000E+00
-.22993E+01  -.18336E+01  0.33880E+00
-.24555E+01  -.16174E+01  0.34031E+00
-.52094E+00  0.29544E+01  0.00000E+00
-.10261E+01  0.28191E+01  0.00000E+00
-.55346E+00  0.27807E+01  0.54985E+00
-.77350E+00  0.28986E+01  0.00000E+00
-.80280E+00  0.28461E+01  0.28945E+00
-.54465E+00  0.29073E+01  0.28705E+00
-.52094E+00  0.29544E+01  0.00000E+00
-.55346E+00  0.27807E+01  0.54985E+00
0.00000E+00  0.28660E+01  0.50000E+00
-.54465E+00  0.29073E+01  0.28705E+00
-.27773E+00  0.28336E+01  0.53135E+00
-.26433E+00  0.29533E+01  0.26174E+00
-.29544E+01  -.52094E+00  0.00000E+00
-.28191E+01  -.10261E+01  0.00000E+00
-.26162E+01  -.68457E+00  0.70996E+00
-.28986E+01  -.77350E+00  0.00000E+00
-.27878E+01  -.87740E+00  0.38574E+00
-.28566E+01  -.61819E+00  0.38546E+00
-.28191E+01  0.10261E+01  0.00000E+00
-.29544E+01  0.52094E+00  0.00000E+00
-.26162E+01  0.68457E+00  0.70996E+00
-.28986E+01  0.77350E+00  0.00000E+00
-.28566E+01  0.61819E+00  0.38546E+00
-.27878E+01  0.87740E+00  0.38574E+00
-.10261E+01  -.28191E+01  0.00000E+00
-.52094E+00  -.29544E+01  0.00000E+00
-.55346E+00  -.27807E+01  0.54985E+00
-.77350E+00  -.28986E+01  0.00000E+00
-.54465E+00  -.29073E+01  0.28705E+00
-.80280E+00  -.28461E+01  0.28945E+00
-.55346E+00  -.27807E+01  0.54985E+00
-.52094E+00  -.29544E+01  0.00000E+00
0.00000E+00  -.28660E+01  0.50000E+00
-.54465E+00  -.29073E+01  0.28705E+00
-.26433E+00  -.29533E+01  0.26174E+00
-.27773E+00  -.28336E+01  0.53135E+00
-.22981E+01  -.19284E+01  0.00000E+00
-.19284E+01  -.22981E+01  0.00000E+00
-.19430E+01  -.20648E+01  0.54985E+00
-.21213E+01  -.21213E+01  0.00000E+00
-.19632E+01  -.22124E+01  0.28734E+00
-.21533E+01  -.20274E+01  0.28845E+00
-.19284E+01  0.22981E+01  0.00000E+00
-.22981E+01  0.19284E+01  0.00000E+00
-.19430E+01  0.20648E+01  0.54985E+00
-.21213E+01  0.21213E+01  0.00000E+00
-.21533E+01  0.20274E+01  0.28845E+00
-.19632E+01  0.22124E+01  0.28734E+00
-.30000E+01  0.18370E-15  0.00000E+00
-.29544E+01  -.52094E+00  0.00000E+00
-.28397E+01  -.24846E+00  0.52589E+00
-.29889E+01  -.25732E+00  0.00000E+00
-.29359E+01  -.38986E+00  0.27412E+00
-.29590E+01  -.12590E+00  0.27412E+00
-.29544E+01  0.52094E+00  0.00000E+00
-.30000E+01  0.18370E-15  0.00000E+00
-.28397E+01  0.24846E+00  0.52589E+00
-.29889E+01  0.25732E+00  0.00000E+00
-.29590E+01  0.12590E+00  0.27412E+00
-.29359E+01  0.38986E+00  0.27412E+00
-.80575E+00  0.80575E+00  0.50946E+00
-.50000E+00  0.86603E+00  0.00000E+00
0.00000E+00  0.11340E+01  0.50000E+00
-.63700E+00  0.81557E+00  0.26172E+00
-.25022E+00  0.10009E+01  0.24976E+00
-.42848E+00  0.10315E+01  0.46927E+00
-.80575E+00  -.80575E+00  0.50946E+00
-.86603E+00  -.50000E+00  0.00000E+00
-.11641E+01  -.29284E+00  0.60055E+00
-.81557E+00  -.63700E+00  0.26172E+00
-.97838E+00  -.38208E+00  0.31328E+00
-.10099E+01  -.56320E+00  0.53684E+00
-.80575E+00  -.80575E+00  0.50946E+00
-.11641E+01  -.29284E+00  0.60055E+00
-.17015E+01  -.95885E+00  0.99890E+00
-.10099E+01  -.56320E+00  0.53684E+00
-.13938E+01  -.60879E+00  0.87778E+00
-.12050E+01  -.84808E+00  0.85018E+00
-.86603E+00  0.50000E+00  0.00000E+00
-.80575E+00  0.80575E+00  0.50946E+00
-.11641E+01  0.29284E+00  0.60055E+00
-.81557E+00  0.63700E+00  0.26172E+00
-.10099E+01  0.56320E+00  0.53684E+00
-.97838E+00  0.38208E+00  0.31328E+00
-.11641E+01  0.29284E+00  0.60055E+00
-.80575E+00  0.80575E+00  0.50946E+00
-.16873E+01  0.95088E+00  0.99800E+00
-.10099E+01  0.56320E+00  0.53684E+00
-.11990E+01  0.84483E+00  0.84596E+00
-.13877E+01  0.60526E+00  0.87392E+00
-.50000E+00  -.86603E+00  0.00000E+00
-.80575E+00  -.80575E+00  0.50946E+00
0.00000E+00  -.11340E+01  0.50000E+00
-.63700E+00  -.81557E+00  0.26172E+00
-.42848E+00  -.10315E+01  0.46927E+00
-.25022E+00  -.10009E+01  0.24976E+00
-.11641E+01  -.29284E+00  0.60055E+00
-.10000E+01  0.61232E-16  0.00000E+00
-.11641E+01  0.29284E+00  0.60055E+00
-.10411E+01  -.14087E+00  0.31396E+00
-.10411E+01  0.14087E+00  0.31396E+00
-.11879E+01  0.72737E-16  0.58350E+00
-.11641E+01  -.29284E+00  0.60055E+00
-.11641E+01  0.29284E+00  0.60055E+00
-.21064E+01  -.18823E-01  0.99432E+00
-.11879E+01  0.72737E-16  0.58350E+00
-.15839E+01  0.13271E+00  0.91185E+00
-.15839E+01  -.15094E+00  0.91257E+00
0.00000E+00  0.25000E+01  0.86603E+00
-.55346E+00  0.27807E+01  0.54985E+00
-.60779E+00  0.23816E+01  0.88900E+00
-.27925E+00  0.26644E+01  0.73411E+00
-.58551E+00  0.26029E+01  0.74424E+00
-.30443E+00  0.24451E+01  0.88584E+00
-.60779E+00  0.23816E+01  0.88900E+00
-.55346E+00  0.27807E+01  0.54985E+00
[...]
POINT_DATA     2304
SCALARS scalars float 1
LOOKUP_TABLE default
0.00000E+00
0.00000E+00
0.50946E+00
0.00000E+00
0.26172E+00
0.26172E+00
0.50000E+00
0.86603E+00
0.86445E+00
0.70711E+00
0.84280E+00
0.68358E+00
0.86603E+00
0.50000E+00
0.54985E+00
0.70711E+00
0.53135E+00
0.73411E+00
0.50000E+00
0.86603E+00
0.54985E+00
0.70711E+00
0.73411E+00
0.53135E+00
0.86603E+00
0.50000E+00
0.87501E+00
0.70711E+00
0.69037E+00
0.84767E+00
0.00000E+00
0.00000E+00
0.50946E+00
0.00000E+00
0.26172E+00
0.26172E+00
0.86603E+00
0.10000E+01
0.99994E+00
0.96829E+00
0.99934E+00
0.95724E+00
0.50000E+00
0.00000E+00
0.00000E+00
0.24984E+00
0.00000E+00
0.26174E+00
0.00000E+00
0.50000E+00
0.00000E+00
0.24984E+00
0.26174E+00
0.00000E+00
0.10000E+01
0.86603E+00
0.99994E+00
0.96829E+00
0.95742E+00
0.99937E+00
0.00000E+00
0.00000E+00
0.60055E+00
0.00000E+00
0.31396E+00
0.31328E+00
0.00000E+00
0.00000E+00
0.50000E+00
0.00000E+00
0.24984E+00
0.24976E+00
0.10000E+01
0.86603E+00
0.88900E+00
0.96829E+00
0.88584E+00
0.97577E+00
0.86603E+00
0.10000E+01
0.88900E+00
0.96829E+00
0.97577E+00
0.88584E+00
0.50000E+00
0.00000E+00
0.00000E+00
0.24984E+00
0.00000E+00
0.24976E+00
0.00000E+00
0.00000E+00
0.60055E+00
0.00000E+00
0.31328E+00
0.31396E+00
0.00000E+00
0.00000E+00
0.49474E+00
0.00000E+00
0.25808E+00
0.25594E+00
0.00000E+00
0.00000E+00
0.58337E+00
0.00000E+00
0.30706E+00
0.30753E+00
0.00000E+00
0.00000E+00
0.58337E+00
0.00000E+00
0.30753E+00
0.30706E+00
0.00000E+00
0.00000E+00
0.49474E+00
0.00000E+00
0.25594E+00
0.25808E+00
0.00000E+00
0.00000E+00
0.65958E+00
0.00000E+00
0.35420E+00
0.35278E+00
0.00000E+00
0.00000E+00
0.70147E+00
0.00000E+00
0.37901E+00
0.38314E+00
0.00000E+00
0.00000E+00
0.70147E+00
0.00000E+00
0.38288E+00
0.37902E+00
0.00000E+00
0.00000E+00
0.63699E+00
0.00000E+00
0.33880E+00
0.34031E+00
0.00000E+00
0.00000E+00
0.54985E+00
0.00000E+00
0.28945E+00
0.28705E+00
0.00000E+00
0.54985E+00
0.50000E+00
0.28705E+00
0.53135E+00
0.26174E+00
0.00000E+00
0.00000E+00
0.70996E+00
0.00000E+00
0.38574E+00
0.38546E+00
0.00000E+00
0.00000E+00
0.70996E+00
0.00000E+00
0.38546E+00
0.38574E+00
0.00000E+00
0.00000E+00
0.54985E+00
0.00000E+00
0.28705E+00
0.28945E+00
0.54985E+00
0.00000E+00
0.50000E+00
0.28705E+00
0.26174E+00
0.53135E+00
0.00000E+00
0.00000E+00
0.54985E+00
0.00000E+00
0.28734E+00
0.28845E+00
0.00000E+00
0.00000E+00
0.54985E+00
0.00000E+00
0.28845E+00
0.28734E+00
0.00000E+00
0.00000E+00
0.52589E+00
0.00000E+00
0.27412E+00
0.27412E+00
0.00000E+00
0.00000E+00
0.52589E+00
0.00000E+00
0.27412E+00
0.27412E+00
0.50946E+00
0.00000E+00
0.50000E+00
0.26172E+00
0.24976E+00
0.46927E+00
0.50946E+00
0.00000E+00
0.60055E+00
0.26172E+00
0.31328E+00
0.53684E+00
0.50946E+00
0.60055E+00
0.99890E+00
0.53684E+00
0.87778E+00
0.85018E+00
0.00000E+00
0.50946E+00
0.60055E+00
0.26172E+00
0.53684E+00
0.31328E+00
0.60055E+00
0.50946E+00
0.99800E+00
0.53684E+00
0.84596E+00
0.87392E+00
0.00000E+00
0.50946E+00
0.50000E+00
0.26172E+00
0.46927E+00
0.24976E+00
0.60055E+00
0.00000E+00
0.60055E+00
0.31396E+00
0.31396E+00
0.58350E+00
0.60055E+00
0.60055E+00
0.99432E+00
0.58350E+00
0.91185E+00
0.91257E+00
0.86603E+00
0.54985E+00
0.88900E+00
0.73411E+00
0.74424E+00
0.88584E+00
0.88900E+00
0.54985E+00
0.49474E+00
0.74424E+00
0.52748E+00
0.72432E+00
0.49474E+00
0.54985E+00
0.00000E+00
0.52748E+00
0.28945E+00
0.25594E+00
0.54985E+00
0.86603E+00
0.88900E+00
0.73411E+00
0.88584E+00
0.74424E+00
0.54985E+00
0.88900E+00
0.49474E+00
0.74424E+00
0.72432E+00
0.52748E+00
0.54985E+00
0.49474E+00
0.00000E+00
0.52748E+00
0.25594E+00
0.28945E+00
0.86603E+00
0.99994E+00
0.86445E+00
0.95724E+00
0.96234E+00
0.84280E+00
0.86445E+00
0.96072E+00
0.99800E+00
0.99154E+00
0.99719E+00
0.93849E+00
0.99994E+00
0.86603E+00
0.87501E+00
0.95742E+00
0.84767E+00
0.96497E+00
0.99994E+00
0.87501E+00
0.96072E+00
0.96497E+00
0.99293E+00
0.99479E+00
0.99994E+00
0.10000E+01
0.88900E+00
0.99934E+00
0.97577E+00
0.97381E+00
0.99994E+00
0.88900E+00
0.70147E+00
0.97381E+00
0.81757E+00
0.92796E+00
0.10000E+01
0.99994E+00
0.88900E+00
0.99937E+00
0.97376E+00
0.97577E+00
0.88900E+00
0.99994E+00
0.70147E+00
0.97376E+00
0.92791E+00
0.81708E+00
0.50000E+00
0.86445E+00
0.50946E+00
0.68358E+00
0.70420E+00
0.46927E+00
0.50946E+00
0.86445E+00
0.99800E+00
0.70420E+00
0.93849E+00
0.84596E+00
0.87501E+00
0.50000E+00
0.50946E+00
0.69037E+00
0.46927E+00
0.71192E+00
0.87501E+00
0.50946E+00
0.99890E+00
0.71192E+00
0.85018E+00
0.94495E+00
0.00000E+00
0.65958E+00
0.54985E+00
0.35278E+00
0.61123E+00
0.28845E+00
0.54985E+00
0.65958E+00
0.96072E+00
0.61123E+00
0.85182E+00
0.80563E+00
0.00000E+00
0.70147E+00
0.54985E+00
0.38314E+00
0.63782E+00
0.28734E+00
0.54985E+00
0.70147E+00
0.96072E+00
0.63782E+00
0.86338E+00
0.80563E+00
0.70147E+00
0.00000E+00
0.54985E+00
0.38288E+00
0.28734E+00
0.63737E+00
0.70147E+00
0.54985E+00
0.96072E+00
0.63737E+00
0.80563E+00
0.86311E+00
0.63699E+00
0.00000E+00
0.54985E+00
0.33880E+00
0.28845E+00
0.59914E+00
0.63699E+00
0.54985E+00
0.96072E+00
0.59914E+00
0.80563E+00
0.84371E+00
0.49474E+00
0.00000E+00
0.70147E+00
0.25808E+00
0.37902E+00
0.60744E+00
0.49474E+00
0.70147E+00
0.88900E+00
0.60744E+00
0.81757E+00
0.72432E+00
0.58337E+00
0.00000E+00
0.63699E+00
0.30706E+00
0.34031E+00
0.61718E+00
0.58337E+00
0.63699E+00
0.99890E+00
0.61718E+00
0.91655E+00
0.90078E+00
0.00000E+00
0.58337E+00
0.65958E+00
0.30706E+00
0.62866E+00
0.35420E+00
0.65958E+00
0.58337E+00
0.99800E+00
0.62866E+00
0.90428E+00
0.92539E+00
0.00000E+00
0.49474E+00
0.70147E+00
0.25808E+00
0.60715E+00
0.37901E+00
0.70147E+00
0.49474E+00
0.88900E+00
0.60715E+00
0.72432E+00
0.81708E+00
0.70996E+00
0.00000E+00
0.58337E+00
0.38574E+00
0.30753E+00
0.65528E+00
0.70996E+00
0.58337E+00
0.99890E+00
0.65528E+00
0.90078E+00
0.94007E+00
0.00000E+00
0.70996E+00
0.58337E+00
0.38574E+00
0.65528E+00
0.30753E+00
0.58337E+00
0.70996E+00
0.99800E+00
0.65528E+00
0.94282E+00
0.90428E+00
0.52589E+00
0.00000E+00
0.70996E+00
0.27412E+00
0.38546E+00
0.62710E+00
0.52589E+00
0.70996E+00
0.99432E+00
0.62710E+00
0.91037E+00
0.84720E+00
0.00000E+00
0.52589E+00
0.70996E+00
0.27412E+00
0.62710E+00
0.38546E+00
0.70996E+00
0.52589E+00
0.99432E+00
0.62710E+00
0.84767E+00
0.91146E+00
0.00000E+00
0.52589E+00
0.52589E+00
0.27412E+00
0.53078E+00
0.27412E+00
0.52589E+00
0.52589E+00
0.99432E+00
0.53078E+00
0.84720E+00
0.84767E+00
0.96072E+00
0.65958E+00
0.99800E+00
0.85182E+00
0.92539E+00
0.99719E+00
0.96072E+00
0.70147E+00
0.99994E+00
0.86338E+00
0.92791E+00
0.99479E+00
0.70147E+00
0.96072E+00
0.99994E+00
0.86311E+00
0.99471E+00
0.92796E+00
0.99994E+00
0.96072E+00
0.86445E+00
0.99471E+00
0.99154E+00
0.96234E+00
0.60055E+00
0.99432E+00
0.99890E+00
0.91257E+00
0.99941E+00
0.87778E+00
0.99432E+00
0.60055E+00
0.99800E+00
0.91185E+00
0.87392E+00
0.99890E+00
0.99432E+00
0.99800E+00
0.70996E+00
0.99890E+00
0.94282E+00
0.91146E+00
0.96072E+00
0.87501E+00
0.99890E+00
0.99293E+00
0.94495E+00
0.99656E+00
0.96072E+00
0.99890E+00
0.63699E+00
0.99656E+00
0.91655E+00
0.84371E+00
0.99890E+00
0.99432E+00
0.70996E+00
0.99941E+00
0.91037E+00
0.94007E+00
-.50000E+00
-.86603E+00
-.54985E+00
-.70711E+00
-.73411E+00
-.53135E+00
-.86603E+00
-.50000E+00
-.86434E+00
-.70711E+00
-.68357E+00
-.84282E+00
0.00000E+00
0.00000E+00
-.50946E+00
0.00000E+00
-.26172E+00
-.26172E+00
0.00000E+00
0.00000E+00
-.50946E+00
0.00000E+00
-.26172E+00
-.26172E+00
-.50000E+00
-.86603E+00
-.86445E+00
-.70711E+00
-.84280E+00
-.68358E+00
-.86603E+00
-.50000E+00
-.54985E+00
-.70711E+00
-.53135E+00
-.73411E+00
-.86603E+00
-.10000E+01
-.88900E+00
-.96829E+00
-.97577E+00
-.88584E+00
-.50000E+00
0.00000E+00
0.00000E+00
-.24984E+00
0.00000E+00
-.24976E+00
0.00000E+00
0.00000E+00
-.60055E+00
0.00000E+00
-.31328E+00
-.31396E+00
0.00000E+00
-.50000E+00
0.00000E+00
-.24984E+00
-.24976E+00
0.00000E+00
-.10000E+01
-.86603E+00
-.88900E+00
-.96829E+00
-.88584E+00
-.97577E+00
0.00000E+00
-.50000E+00
0.00000E+00
-.24984E+00
-.26174E+00
0.00000E+00
-.10000E+01
-.86603E+00
-.99994E+00
-.96829E+00
-.95742E+00
-.99937E+00
0.00000E+00
0.00000E+00
-.60055E+00
0.00000E+00
-.31396E+00
-.31328E+00
-.86603E+00
-.10000E+01
-.99994E+00
-.96829E+00
-.99934E+00
-.95724E+00
-.50000E+00
0.00000E+00
0.00000E+00
-.24984E+00
0.00000E+00
-.26174E+00
0.00000E+00
0.00000E+00
-.58337E+00
0.00000E+00
-.30753E+00
-.30706E+00
0.00000E+00
0.00000E+00
-.49474E+00
0.00000E+00
-.25594E+00
-.25808E+00
0.00000E+00
0.00000E+00
-.52588E+00
0.00000E+00
-.27411E+00
-.27411E+00
0.00000E+00
0.00000E+00
-.49474E+00
0.00000E+00
-.25808E+00
-.25594E+00
0.00000E+00
0.00000E+00
-.70147E+00
0.00000E+00
-.38314E+00
-.37901E+00
0.00000E+00
0.00000E+00
-.63323E+00
0.00000E+00
-.33665E+00
-.33772E+00
0.00000E+00
0.00000E+00
-.70147E+00
0.00000E+00
-.37902E+00
-.38288E+00
0.00000E+00
0.00000E+00
-.65958E+00
0.00000E+00
-.35420E+00
-.35278E+00
0.00000E+00
0.00000E+00
-.54985E+00
0.00000E+00
-.28705E+00
-.28945E+00
-.54985E+00
0.00000E+00
-.50000E+00
-.28705E+00
-.26174E+00
-.53135E+00
0.00000E+00
0.00000E+00
-.70996E+00
0.00000E+00
-.38546E+00
-.38574E+00
0.00000E+00
0.00000E+00
-.54985E+00
0.00000E+00
-.28945E+00
-.28705E+00
0.00000E+00
-.54985E+00
-.50000E+00
-.28705E+00
-.53135E+00
-.26174E+00
0.00000E+00
0.00000E+00
-.70996E+00
0.00000E+00
-.38574E+00
-.38546E+00
0.00000E+00
0.00000E+00
-.54985E+00
0.00000E+00
-.28845E+00
-.28734E+00
0.00000E+00
0.00000E+00
-.54985E+00
0.00000E+00
-.28734E+00
-.28845E+00
0.00000E+00
0.00000E+00
-.52589E+00
0.00000E+00
-.27412E+00
-.27412E+00
0.00000E+00
0.00000E+00
-.52589E+00
0.00000E+00
-.27412E+00
-.27412E+00
0.00000E+00
-.50946E+00
-.50000E+00
-.26172E+00
-.46927E+00
-.24976E+00
-.50946E+00
0.00000E+00
-.60055E+00
-.26172E+00
-.31328E+00
-.53684E+00
-.50946E+00
-.60055E+00
-.99800E+00
-.53684E+00
-.87392E+00
-.84596E+00
0.00000E+00
-.50946E+00
-.60055E+00
-.26172E+00
-.53684E+00
-.31328E+00
-.60055E+00
-.50946E+00
-.99800E+00
-.53684E+00
-.84596E+00
-.87392E+00
-.50946E+00
0.00000E+00
-.50000E+00
-.26172E+00
-.24976E+00
-.46927E+00
0.00000E+00
-.60055E+00
-.60055E+00
-.31396E+00
-.58350E+00
-.31396E+00
-.60055E+00
-.60055E+00
-.99432E+00
-.58350E+00
-.91214E+00
-.91231E+00
-.54985E+00
-.86603E+00
-.88900E+00
-.73411E+00
-.88584E+00
-.74424E+00
-.54985E+00
-.88900E+00
-.49474E+00
-.74424E+00
-.72432E+00
-.52748E+00
-.54985E+00
-.49474E+00
0.00000E+00
-.52748E+00
-.25594E+00
-.28945E+00
-.86603E+00
-.54985E+00
-.88900E+00
-.73411E+00
-.74424E+00
-.88584E+00
-.88900E+00
-.54985E+00
-.49474E+00
-.74424E+00
-.52748E+00
-.72432E+00
-.49474E+00
-.54985E+00
0.00000E+00
-.52748E+00
-.28945E+00
-.25594E+00
-.99994E+00
-.86603E+00
-.86434E+00
-.95742E+00
-.84282E+00
-.96224E+00
-.99994E+00
-.86434E+00
-.97915E+00
-.96224E+00
-.98586E+00
-.99792E+00
-.86603E+00
-.99994E+00
-.86445E+00
-.95724E+00
-.96234E+00
-.84280E+00
-.86445E+00
-.96072E+00
-.99800E+00
-.99154E+00
-.99719E+00
-.93849E+00
-.10000E+01
-.99994E+00
-.88900E+00
-.99937E+00
-.97376E+00
-.97577E+00
-.88900E+00
-.99994E+00
-.70147E+00
-.97376E+00
-.92813E+00
-.81757E+00
-.99994E+00
-.10000E+01
-.88900E+00
-.99934E+00
-.97577E+00
-.97381E+00
-.99994E+00
-.88900E+00
-.70147E+00
-.97381E+00
-.81708E+00
-.92775E+00
-.86434E+00
-.50000E+00
-.50946E+00
-.68357E+00
-.46927E+00
-.70408E+00
-.86434E+00
-.50946E+00
-.99800E+00
-.70408E+00
-.84596E+00
-.93839E+00
-.50000E+00
-.86445E+00
-.50946E+00
-.68358E+00
-.70420E+00
-.46927E+00
-.50946E+00
-.86445E+00
-.99800E+00
-.70420E+00
-.93849E+00
-.84596E+00
-.70147E+00
0.00000E+00
-.54985E+00
-.38314E+00
-.28734E+00
-.63782E+00
-.70147E+00
-.54985E+00
-.96072E+00
-.63782E+00
-.80563E+00
-.86338E+00
-.63323E+00
0.00000E+00
-.54985E+00
-.33665E+00
-.28845E+00
-.59778E+00
-.63323E+00
-.97915E+00
-.99800E+00
-.86326E+00
-.99931E+00
-.91852E+00
0.00000E+00
-.70147E+00
-.54985E+00
-.38288E+00
-.63737E+00
-.28734E+00
-.54985E+00
-.70147E+00
-.97915E+00
-.63737E+00
-.88186E+00
-.82776E+00
0.00000E+00
-.65958E+00
-.54985E+00
-.35278E+00
-.61123E+00
-.28845E+00
-.54985E+00
-.65958E+00
-.96072E+00
-.61123E+00
-.85182E+00
-.80563E+00
0.00000E+00
-.58337E+00
-.65958E+00
-.30706E+00
-.62866E+00
-.35420E+00
-.65958E+00
-.58337E+00
-.99800E+00
-.62866E+00
-.90428E+00
-.92539E+00
0.00000E+00
-.49474E+00
-.70147E+00
-.25808E+00
-.60744E+00
-.37902E+00
-.70147E+00
-.49474E+00
-.88900E+00
-.60744E+00
-.72432E+00
-.81757E+00
-.52588E+00
0.00000E+00
-.63323E+00
-.27411E+00
-.33772E+00
-.58751E+00
-.52588E+00
-.63323E+00
-.99800E+00
-.58751E+00
-.91852E+00
-.88923E+00
-.49474E+00
0.00000E+00
-.70147E+00
-.25808E+00
-.37901E+00
-.60715E+00
-.49474E+00
-.70147E+00
-.88900E+00
-.60715E+00
-.81708E+00
-.72432E+00
0.00000E+00
-.70996E+00
-.58337E+00
-.38574E+00
-.65528E+00
-.30753E+00
-.58337E+00
-.70996E+00
-.99800E+00
-.65528E+00
-.94282E+00
-.90428E+00
-.70996E+00
0.00000E+00
-.52588E+00
-.38574E+00
-.27411E+00
-.62780E+00
-.70996E+00
-.52588E+00
-.99800E+00
-.62780E+00
-.88923E+00
-.94282E+00
0.00000E+00
-.52589E+00
-.70996E+00
-.27412E+00
-.62710E+00
-.38546E+00
-.70996E+00
-.52589E+00
-.99432E+00
-.62710E+00
-.84748E+00
-.91103E+00
-.52589E+00
0.00000E+00
-.70996E+00
-.27412E+00
-.38546E+00
-.62710E+00
-.52589E+00
-.70996E+00
-.99432E+00
-.62710E+00
-.91078E+00
-.84737E+00
-.52589E+00
0.00000E+00
-.52589E+00
-.27412E+00
-.27412E+00
-.53078E+00
-.52589E+00
-.52589E+00
-.99432E+00
-.53078E+00
-.84737E+00
-.84748E+00
-.54985E+00
-.97915E+00
-.63323E+00
-.82776E+00
-.86326E+00
-.59778E+00
-.70147E+00
-.96072E+00
-.99994E+00
-.86338E+00
-.99471E+00
-.92775E+00
-.97915E+00
-.70147E+00
-.99994E+00
-.88186E+00
-.92813E+00
-.99792E+00
-.97915E+00
-.86434E+00
-.99800E+00
-.98586E+00
-.93839E+00
-.99931E+00
-.99432E+00
-.60055E+00
-.99800E+00
-.91214E+00
-.87392E+00
-.99898E+00
-.99432E+00
-.99800E+00
-.70996E+00
-.99898E+00
-.94282E+00
-.91103E+00
-.60055E+00
-.99432E+00
-.99800E+00
-.91231E+00
-.99903E+00
-.87392E+00
-.99800E+00
-.99432E+00
-.70996E+00
-.99903E+00
-.91078E+00
-.94282E+00
-.99994E+00
-.96072E+00
-.86445E+00
-.99471E+00
-.99154E+00
-.96234E+00
-.99800E+00
-.96072E+00
-.65958E+00
-.99719E+00
-.85182E+00
-.92539E+00
0.00000E+00
0.00000E+00
0.50946E+00
0.00000E+00
0.26172E+00
0.26172E+00
0.50000E+00
0.86603E+00
0.86445E+00
0.70711E+00
0.84280E+00
0.68358E+00
0.86603E+00
0.50000E+00
0.54985E+00
0.70711E+00
0.53135E+00
0.73411E+00
0.50000E+00
0.86603E+00
0.54985E+00
0.70711E+00
0.73411E+00
0.53135E+00
0.86603E+00
0.50000E+00
0.87501E+00
0.70711E+00
0.69037E+00
0.84767E+00
0.00000E+00
0.00000E+00
0.50946E+00
0.00000E+00
0.26172E+00
0.26172E+00
0.86603E+00
0.10000E+01
0.99994E+00
0.96829E+00
0.99934E+00
0.95724E+00
0.50000E+00
0.00000E+00
0.00000E+00
0.24984E+00
0.00000E+00
0.26174E+00
0.00000E+00
0.50000E+00
0.00000E+00
0.24984E+00
0.26174E+00
0.00000E+00
0.10000E+01
0.86603E+00
0.99994E+00
0.96829E+00
0.95742E+00
0.99937E+00
0.00000E+00
0.00000E+00
0.60055E+00
0.00000E+00
0.31396E+00
0.31328E+00
0.00000E+00
0.00000E+00
0.50000E+00
0.00000E+00
0.24984E+00
0.24976E+00
0.10000E+01
0.86603E+00
0.88900E+00
0.96829E+00
0.88584E+00
0.97577E+00
0.86603E+00
0.10000E+01
0.88900E+00
0.96829E+00
0.97577E+00
0.88584E+00
0.50000E+00
0.00000E+00
0.00000E+00
0.24984E+00
0.00000E+00
0.24976E+00
0.00000E+00
0.00000E+00
0.60055E+00
0.00000E+00
0.31328E+00
0.31396E+00
0.00000E+00
0.00000E+00
0.49474E+00
0.00000E+00
0.25808E+00
0.25594E+00
0.00000E+00
0.00000E+00
0.58337E+00
0.00000E+00
0.30706E+00
0.30753E+00
0.00000E+00
0.00000E+00
0.58337E+00
0.00000E+00
0.30753E+00
0.30706E+00
0.00000E+00
0.00000E+00
0.49474E+00
0.00000E+00
0.25594E+00
0.25808E+00
0.00000E+00
0.00000E+00
0.65958E+00
0.00000E+00
0.35420E+00
0.35278E+00
0.00000E+00
0.00000E+00
0.70147E+00
0.00000E+00
0.37901E+00
0.38314E+00
0.00000E+00
0.00000E+00
0.70147E+00
0.00000E+00
0.38288E+00
0.37902E+00
0.00000E+00
0.00000E+00
0.63699E+00
0.00000E+00
0.33880E+00
0.34031E+00
0.00000E+00
0.00000E+00
0.54985E+00
0.00000E+00
0.28945E+00
0.28705E+00
0.00000E+00
0.54985E+00
0.50000E+00
0.28705E+00
0.53135E+00
0.26174E+00
0.00000E+00
0.00000E+00
0.70996E+00
0.00000E+00
0.38574E+00
0.38546E+00
0.00000E+00
0.00000E+00
0.70996E+00
0.00000E+00
0.38546E+00
0.38574E+00
0.00000E+00
0.00000E+00
0.54985E+00
0.00000E+00
0.28705E+00
0.28945E+00
0.54985E+00
0.00000E+00
0.50000E+00
0.28705E+00
0.26174E+00
0.53135E+00
0.00000E+00
0.00000E+00
0.54985E+00
0.00000E+00
0.28734E+00
0.28845E+00
0.00000E+00
0.00000E+00
0.54985E+00
0.00000E+00
0.28845E+00
0.28734E+00
0.00000E+00
0.00000E+00
0.52589E+00
0.00000E+00
0.27412E+00
0.27412E+00
0.00000E+00
0.00000E+00
0.52589E+00
0.00000E+00
0.27412E+00
0.27412E+00
0.50946E+00
0.00000E+00
0.50000E+00
0.26172E+00
0.24976E+00
0.46927E+00
0.50946E+00
0.00000E+00
0.60055E+00
0.26172E+00
0.31328E+00
0.53684E+00
0.50946E+00
0.60055E+00
0.99890E+00
0.53684E+00
0.87778E+00
0.85018E+00
0.00000E+00
0.50946E+00
0.60055E+00
0.26172E+00
0.53684E+00
0.31328E+00
0.60055E+00
0.50946E+00
0.99800E+00
0.53684E+00
0.84596E+00
0.87392E+00
0.00000E+00
0.50946E+00
0.50000E+00
0.26172E+00
0.46927E+00
0.24976E+00
0.60055E+00
0.00000E+00
0.60055E+00
0.31396E+00
0.31396E+00
0.58350E+00
0.60055E+00
0.60055E+00
0.99432E+00
0.58350E+00
0.91185E+00
0.91257E+00
0.86603E+00
0.54985E+00
0.88900E+00
0.73411E+00
0.74424E+00
0.88584E+00
0.88900E+00
0.54985E+00
0.49474E+00
0.74424E+00
0.52748E+00
0.72432E+00
0.49474E+00
0.54985E+00
0.00000E+00
0.52748E+00
0.28945E+00
0.25594E+00
0.54985E+00
0.86603E+00
0.88900E+00
0.73411E+00
0.88584E+00
0.74424E+00
0.54985E+00
0.88900E+00
0.49474E+00
0.74424E+00
0.72432E+00
0.52748E+00
0.54985E+00
0.49474E+00
0.00000E+00
0.52748E+00
0.25594E+00
0.28945E+00
0.86603E+00
0.99994E+00
0.86445E+00
0.95724E+00
0.96234E+00
0.84280E+00
0.86445E+00
0.96072E+00
0.99800E+00
0.99154E+00
0.99719E+00
0.93849E+00
0.99994E+00
0.86603E+00
0.87501E+00
0.95742E+00
0.84767E+00
0.96497E+00
0.99994E+00
0.87501E+00
0.96072E+00
0.96497E+00
0.99293E+00
0.99479E+00
0.99994E+00
0.10000E+01
0.88900E+00
0.99934E+00
0.97577E+00
0.97381E+00
0.99994E+00
0.88900E+00
0.70147E+00
0.97381E+00
0.81757E+00
0.92796E+00
0.10000E+01
0.99994E+00
0.88900E+00
0.99937E+00
0.97376E+00
0.97577E+00
0.88900E+00
0.99994E+00
0.70147E+00
0.97376E+00
0.92791E+00
0.81708E+00
0.50000E+00
0.86445E+00
0.50946E+00
0.68358E+00
0.70420E+00
0.46927E+00
0.50946E+00
0.86445E+00
0.99800E+00
0.70420E+00
0.93849E+00
0.84596E+00
0.87501E+00
0.50000E+00
0.50946E+00
0.69037E+00
0.46927E+00
0.71192E+00
0.87501E+00
0.50946E+00
0.99890E+00
0.71192E+00
0.85018E+00
0.94495E+00
0.00000E+00
0.65958E+00
0.54985E+00
0.35278E+00
0.61123E+00
0.28845E+00
0.54985E+00
0.65958E+00
0.96072E+00
0.61123E+00
0.85182E+00
0.80563E+00
0.00000E+00
0.70147E+00
0.54985E+00
0.38314E+00
0.63782E+00
0.28734E+00
0.54985E+00
0.70147E+00
0.96072E+00
0.63782E+00
0.86338E+00
0.80563E+00
0.70147E+00
0.00000E+00
0.54985E+00
0.38288E+00
0.28734E+00
0.63737E+00
0.70147E+00
0.54985E+00
0.96072E+00
0.63737E+00
0.80563E+00
0.86311E+00
0.63699E+00
0.00000E+00
0.54985E+00
0.33880E+00
0.28845E+00
0.59914E+00
0.63699E+00
0.54985E+00
0.96072E+00
0.59914E+00
0.80563E+00
0.84371E+00
0.49474E+00
0.00000E+00
0.70147E+00
0.25808E+00
0.37902E+00
0.60744E+00
0.49474E+00
0.70147E+00
0.88900E+00
0.60744E+00
0.81757E+00
0.72432E+00
0.58337E+00
0.00000E+00
0.63699E+00
0.30706E+00
0.34031E+00
0.61718E+00
0.58337E+00
0.63699E+00
0.99890E+00
0.61718E+00
0.91655E+00
0.90078E+00
0.00000E+00
0.58337E+00
0.65958E+00
0.30706E+00
0.62866E+00
0.35420E+00
0.65958E+00
0.58337E+00
0.99800E+00
0.62866E+00
0.90428E+00
0.92539E+00
0.00000E+00
0.49474E+00
0.70147E+00
0.25808E+00
0.60715E+00
0.37901E+00
0.70147E+00
0.49474E+00
0.88900E+00
0.60715E+00
0.72432E+00
0.81708E+00
0.70996E+00
0.00000E+00
0.58337E+00
0.38574E+00
0.30753E+00
0.65528E+00
0.70996E+00
0.58337E+00
0.99890E+00
0.65528E+00
0.90078E+00
0.94007E+00
0.00000E+00
0.70996E+00
0.58337E+00
0.38574E+00
0.65528E+00
0.30753E+00
0.58337E+00
0.70996E+00
0.99800E+00
0.65528E+00
0.94282E+00
0.90428E+00
0.52589E+00
0.00000E+00
0.70996E+00
0.27412E+00
0.38546E+00
0.62710E+00
0.52589E+00
0.70996E+00
0.99432E+00
0.62710E+00
0.91037E+00
0.84720E+00
0.00000E+00
0.52589E+00
0.70996E+00
0.27412E+00
0.62710E+00
0.38546E+00
0.70996E+00
0.52589E+00
0.99432E+00
0.62710E+00
0.84767E+00
0.91146E+00
0.00000E+00
0.52589E+00
0.52589E+00
0.27412E+00
0.53078E+00